/*--------------------------------*- C++ -*----------------------------------*\
  =========                 |
  \\      /  F ield         | OpenFOAM: The Open Source CFD Toolbox
   \\    /   O peration     | Website:  https://openfoam.org
    \\  /    A nd           | Version:  11
     \\/     M anipulation  |
\*---------------------------------------------------------------------------*/
FoamFile
{
    format      ascii;
    class       volScalarField;
    location    "0";
    object      yPlus;
}
// * * * * * * * * * * * * * * * * * * * * * * * * * * * * * * * * * * * * * //

dimensions      [0 0 0 0 0 0 0];

internalField   uniform 0;

boundaryField
{
    inlet
    {
        type            calculated;
        value           uniform 0;
    }
    outlet
    {
        type            calculated;
        value           uniform 0;
    }
    wall
    {
        type            calculated;
        value           nonuniform List<scalar> 
8690
(
545.9366
536.0303
542.2088
544.5072
543.8973
544.2327
543.4652
543.6937
543.7896
543.6721
543.6152
543.7157
543.8705
543.723
543.483
543.661
543.4424
543.4764
543.7493
543.5687
543.4885
543.6289
543.9111
543.688
543.6682
543.7876
543.6384
543.6446
543.5683
543.6084
543.1472
543.3709
543.325
543.2353
543.4464
543.3798
543.5739
543.4955
543.2395
543.3882
543.6321
543.4447
543.5639
543.5834
543.2177
543.3986
543.609
543.4126
543.294
543.4282
543.4735
543.3915
543.8621
543.6382
543.6425
543.7373
544.1335
543.8815
544.2226
544.172
543.8898
544.0817
543.7783
543.8127
543.7027
543.7368
543.677
543.6987
543.6737
543.6914
543.7028
543.6462
543.9391
543.8598
543.5082
543.6902
543.5494
543.532
543.7967
543.6367
543.8381
543.8722
543.4727
543.6209
543.4945
543.4875
543.7778
543.6037
543.5189
543.6607
544.0268
543.7574
544.0592
544.0407
543.8484
543.9605
543.8251
543.8262
543.6375
543.7322
543.5614
543.5902
543.4528
543.5113
543.2804
543.3551
543.684
543.4838
543.3351
543.4806
543.5641
543.4532
543.5009
543.5459
543.8744
543.6905
543.6426
543.7337
543.8167
543.7322
544.0169
543.9072
543.6477
543.8358
544.1121
543.8648
544.0965
544.1057
543.8055
543.9517
544.1797
543.9738
543.5911
543.8641
543.6035
543.6086
543.9173
543.7314
543.6399
543.7876
544.0924
543.8573
544.0723
544.0855
543.6464
543.8607
543.8811
543.7373
543.513
543.6802
543.6903
543.6121
543.5993
543.6468
543.5932
543.596
543.8589
543.7071
543.9322
543.8894
543.6535
543.8047
543.7747
543.689
544.1298
543.9837
544.0258
544.0788
543.8818
543.9417
544.2443
544.0428
543.8359
544.0342
543.823
543.8282
544.0297
543.9225
543.6545
543.8282
544.1591
543.8993
544.1279
544.1445
543.7201
543.9291
543.9293
543.8009
543.5444
543.7225
543.4894
543.5306
543.8102
543.6245
543.5157
543.6745
543.9049
543.7126
543.6319
543.7435
543.8855
543.7578
544.0395
543.949
544.3819
544.2298
543.9651
544.1722
543.4806
543.7502
543.9105
543.7228
542.3059
541.761
543.9344
544.1656
543.3154
543.9391
543.4207
544.845
544.4057
544.1809
537.7294
541.6614
543.6403
542.7124
543.2331
543.3394
542.9819
543.4741
543.1792
543.4512
543.0211
543.1695
543.4991
543.3195
542.9633
543.0997
543.4896
543.4221
543.2137
543.0991
543.2944
543.5762
544.4106
543.3769
543.7426
543.6161
543.2575
543.3684
543.52
543.3272
543.5203
543.1048
543.1498
543.4998
543.5441
542.9525
542.9746
543.6306
543.6858
543.0732
542.8955
543.6037
543.6337
543.6588
543.6604
543.0911
543.2386
543.8661
543.773
543.0007
542.7219
543.178
543.2914
543.6287
534.2543
534.4935
542.5858
544.6849
544.0455
544.3675
544.1214
544.9368
543.3641
543.9138
543.7078
543.6833
544.5419
543.9278
543.8348
543.787
544.4961
544.4395
543.8983
544.2329
543.5421
544.0549
545.018
544.1386
544.2598
544.0044
543.54
544.2909
544.4306
544.5759
543.2218
543.1299
543.6619
544.0907
543.6539
544.526
544.5999
543.0885
544.9638
543.6928
543.5727
543.859
544.2269
544.5457
543.3494
543.6772
544.6447
542.9007
543.0649
543.3171
542.9064
542.8357
543.1491
543.9104
543.0173
542.7787
543.5445
543.3999
542.9672
543.538
543.5908
542.9666
542.8303
543.4506
543.5226
543.0174
543.1579
543.0732
543.3698
543.0137
544.2946
543.5077
543.0455
543.9056
543.8729
543.0987
543.0136
543.2274
543.1325
543.1017
543.5464
543.503
543.1609
542.972
543.3102
543.5534
543.3266
543.1199
543.3313
543.3342
543.3881
543.7356
543.3213
543.0877
543.5
543.8183
543.5225
543.1474
543.2525
543.1385
542.9443
544.1329
544.0042
544.4387
543.3501
544.6032
543.5298
543.9733
544.1513
544.3055
544.1259
545.5127
543.1626
542.8824
543.5218
543.2848
543.1961
543.2666
543.3651
543.2103
543.0708
543.1954
543.2949
543.237
543.2824
543.1294
543.2515
543.1307
543.9318
543.9036
543.2141
543.8397
543.738
543.163
543.1846
543.3694
543.2288
543.3088
543.3217
543.3104
543.3179
543.2489
543.1308
543.2396
543.4668
543.3966
543.2075
543.0933
543.4841
543.712
543.4659
543.3563
543.2912
543.5011
543.6744
543.4468
543.1335
542.9257
543.0507
543.7146
543.7142
544.3388
543.4541
542.9785
543.3468
543.5561
543.1293
542.8825
543.2709
543.5185
543.2072
543.2147
543.0709
543.3331
543.2724
544.322
543.4539
543.3646
543.7511
543.5498
543.2361
543.2455
543.2925
543.3176
543.0868
543.3341
543.5076
543.3382
542.9474
543.1335
543.6044
543.4953
543.0829
543.1058
543.4741
543.5061
543.7021
543.4862
543.0735
543.3593
543.8501
543.6374
543.061
542.9778
543.1766
543.1134
543.8476
536.2043
544.141
544.3879
543.9433
543.0928
543.0071
543.6113
545.6682
545.6122
544.2198
543.4183
543.9384
543.8993
544.384
544.0146
543.8205
544.234
543.8175
543.6767
543.71
543.8311
543.8805
543.885
543.4273
543.5041
543.5215
543.6463
543.2944
543.2498
543.8375
543.5936
543.1866
543.533
543.6027
543.2994
543.2322
543.5396
543.6124
543.4212
543.446
543.5306
543.4788
543.3597
543.0981
543.455
543.3186
543.104
543.1629
543.1602
543.2495
543.3914
543.6967
543.3049
543.5758
543.7341
543.803
543.737
543.8448
543.6817
543.465
543.8346
543.4083
543.3493
543.4333
543.2828
543.9742
543.7933
543.6311
543.7633
543.6177
543.6773
543.7209
543.6485
543.9873
543.8899
543.5608
543.7791
543.9269
543.616
543.7283
543.9136
543.7968
543.8243
543.35
543.5168
543.8092
543.4951
543.6816
543.8309
543.8772
543.8369
543.546
543.5787
543.4233
543.6806
543.3978
543.298
543.3295
543.2918
543.316
543.4109
543.3301
543.2247
543.7769
543.6038
543.3196
543.5643
543.8901
543.5369
543.4979
543.8454
543.6431
543.3999
543.9376
543.9395
543.5873
543.681
543.6509
543.7325
543.8853
543.6317
544.0439
544.0606
543.7884
543.9304
543.6209
543.5599
543.5294
543.7943
543.5071
543.4106
543.4357
543.4011
543.5519
543.671
543.8131
543.4613
543.7989
543.9478
544.0248
543.9752
543.6802
543.7102
543.5522
543.8045
543.5093
543.4174
543.4716
543.383
543.8123
543.812
543.7466
543.6482
543.669
543.8223
543.3746
543.4908
543.9482
543.6169
543.965
544.0765
543.8373
543.8283
543.5641
543.6059
543.9097
543.835
543.3718
543.6942
543.548
543.3562
543.5339
543.5323
543.6731
543.7369
543.7533
543.5293
543.8185
543.8828
543.9394
543.9242
544.0183
543.8477
543.6511
544.0589
543.5846
543.4889
543.5502
543.4693
543.8827
543.8736
543.8643
543.7405
543.7706
543.8844
543.9367
543.949
543.511
543.5702
543.5773
543.7148
543.9898
543.6295
543.8693
544.0462
544.0796
543.9557
544.1531
544.1139
544.4063
544.125
544.1169
544.1964
541.7405
543.848
543.5207
543.5053
539.3897
543.6185
542.9043
543.5195
544.3741
543.9265
544.0509
544.397
544.3049
544.4363
543.2161
543.5721
543.6916
542.2368
543.0304
540.703
541.6196
543.2708
543.7494
542.0167
542.8083
542.5576
543.0543
543.0784
543.5677
542.8928
543.4581
543.5382
543.5179
543.4985
542.8399
543.3773
543.5882
543.6124
543.2622
543.0374
542.588
543.0189
542.896
545.8375
543.4458
542.8731
543.6843
543.9751
543.4172
543.8017
543.0854
543.6299
543.7777
543.7779
543.672
542.9936
543.339
543.3851
542.9183
543.5473
543.0379
543.5275
543.5978
543.0987
543.7136
543.1608
543.6046
543.6184
543.3747
542.9698
543.1711
543.6144
543.1601
543.7964
543.7801
543.2631
543.6276
543.1295
543.3037
543.2044
543.0576
544.8793
540.7127
543.4299
544.134
544.293
544.1913
543.4787
543.4172
544.9545
545.3735
543.916
544.1182
543.7043
543.4276
543.9136
543.8097
543.7655
543.8638
544.4175
544.0531
544.1571
544.1678
543.9823
544.1379
544.0271
544.2021
543.8462
543.9816
544.2786
543.7047
544.6214
542.303
543.0254
543.0324
543.7035
543.3949
543.7262
543.9464
543.9368
543.8722
546.9306
543.0266
543.0935
543.6247
541.9151
545.5276
544.127
540.5736
544.4915
542.4884
543.4539
543.6987
546.8504
543.4181
545.8719
542.9814
542.6936
542.938
543.3594
547.0939
543.0663
544.4406
543.7154
544.9565
542.0919
543.3913
543.13
543.6364
543.3774
543.9757
543.1204
543.2505
542.9744
543.7562
543.337
542.8849
543.2779
543.3133
542.8642
542.8974
543.8284
543.2212
543.0217
543.31
543.4592
543.1864
542.7721
543.1992
543.4169
543.9724
543.3885
543.8617
543.4985
543.3628
543.8277
543.6073
543.1787
543.5501
543.8295
543.582
543.2504
543.9943
543.8942
543.5612
543.2478
543.4473
543.3204
542.9204
542.8672
543.3363
543.3806
542.9293
543.389
543.7662
543.5286
543.0005
543.5168
543.5286
543.0743
543.511
543.7839
543.4963
543.1518
543.628
543.4187
543.5032
543.4912
543.4451
542.9608
543.4821
543.9816
543.7417
543.2731
543.6676
543.5223
543.1441
543.4715
543.6208
543.4372
542.7218
542.3366
543.3028
543.4393
542.3211
544.3476
543.0217
543.9098
543.3346
542.7153
543.111
542.9761
543.4119
543.2774
542.838
543.1801
543.3507
543.3216
543.1692
542.8593
543.1497
543.1126
542.6906
543.0233
542.7451
543.3196
543.7687
543.2607
543.1783
543.0785
543.4249
543.1341
543.1838
543.1244
543.3052
543.1594
543.0456
542.638
542.9893
543.1053
543.5012
543.1467
543.1317
542.8136
544.0726
543.5559
543.6047
543.0426
543.2037
543.2755
543.1527
543.4301
543.7692
544.5889
543.814
543.9485
543.4596
543.7146
543.5019
543.46
543.6985
543.5084
543.2527
543.7795
543.8133
543.406
543.5258
543.3652
543.3895
543.1242
543.4314
543.6328
543.3339
543.2083
543.3554
543.6123
543.0976
543.1054
542.9236
543.0117
543.104
542.9208
543.1465
543.3548
543.2466
542.9704
543.678
543.5939
543.4928
543.7008
543.5712
543.6201
543.8331
543.3608
543.3729
543.6302
543.3879
543.7564
543.8477
543.7145
543.6114
543.875
543.9087
543.8814
543.7103
544.0685
544.0711
544.0625
544.0725
543.812
544.014
543.7669
543.6462
543.8367
543.9519
543.8279
543.8156
544.0368
543.4581
543.4848
543.6209
543.6802
543.7547
543.7606
543.9845
543.8143
543.5885
544.0406
544.0234
543.7401
543.9608
543.652
543.5688
543.9932
543.8385
543.9381
543.9752
543.6322
543.8798
543.4173
543.3121
543.5503
543.7201
543.4674
543.829
543.908
543.6086
543.7275
543.6456
543.4963
544.2009
544.0369
544.1274
544.2013
544.2073
543.8512
544.0425
544.0597
543.8807
544.1478
544.1554
543.8328
544.0649
543.7854
543.6733
543.7592
543.8916
543.5613
543.6613
543.8591
543.5629
543.9361
544.1303
543.9623
543.7363
544.1712
544.1544
543.8561
544.0734
543.7847
543.6784
543.6302
543.8665
543.3381
543.3828
543.2597
543.7561
543.5262
543.6127
543.475
543.448
543.5217
543.4965
543.7239
543.4917
543.6883
543.9099
543.7321
543.561
543.7328
543.8742
543.8598
543.6726
543.911
544.0071
543.8286
543.8189
544.1158
544.1606
544.2709
544.0608
544.0337
544.1534
544.031
543.9615
544.1921
543.8489
543.7623
543.6917
543.9301
543.3992
543.4522
543.6109
543.4313
543.5367
543.786
543.5781
543.3384
543.9946
543.9338
543.8838
544.0467
543.9274
544.1677
544.2236
544.2133
544.1629
544.409
544.241
545.1566
543.1871
543.3485
542.9844
541.484
545.4866
544.9612
542.042
544.589
542.7521
543.1965
544.1008
543.2951
540.3526
539.2315
544.3349
544.5066
543.024
542.2245
542.2589
543.3791
543.2842
543.2414
543.1869
543.4126
543.1657
542.9286
543.1921
543.2856
543.1639
543.2114
542.9613
543.4474
542.8331
543.1216
543.2697
543.1325
542.9788
543.31
543.1573
543.4017
543.1734
543.4734
542.8134
542.7765
543.8203
542.8258
543.059
542.5489
543.2928
543.5749
544.0042
543.3337
543.6794
543.3188
543.8174
543.3119
543.0842
543.7671
543.8994
543.6804
543.0804
543.3272
543.3317
543.1191
543.6113
543.452
543.2795
543.3572
543.2623
543.1163
543.5541
543.3361
543.6589
543.396
543.1354
543.2781
543.0914
542.9784
543.2033
542.9449
543.4989
543.3959
543.4577
543.4227
543.4164
543.4595
543.0761
542.9387
543.362
543.0387
543.76
543.5655
543.5657
543.6016
543.0253
543.1757
543.4707
543.2972
543.2144
543.328
542.9345
543.2553
543.2992
543.3321
543.0421
543.1671
543.3126
543.2062
543.4084
542.375
543.6511
543.5033
543.5901
543.2953
543.6327
542.2432
543.7169
543.7392
543.6704
542.1552
542.6302
543.5817
544.4879
544.3676
543.362
543.127
543.4169
544.4065
540.5146
544.1408
543.3809
542.5901
543.7936
543.4858
543.8863
543.9021
544.0516
543.543
544.199
544.6746
544.2076
543.9599
544.2578
544.5413
544.0336
544.7363
543.5882
541.6184
544.4057
544.4054
543.6895
543.9788
543.6768
544.8554
544.2812
543.3101
543.1393
543.4413
542.8372
542.8448
543.2358
542.2317
542.1276
542.5722
542.7373
542.9752
543.1431
542.9284
543.3461
543.5176
543.1467
543.5204
543.5986
543.5946
543.4904
543.4207
543.2996
543.6118
543.2541
543.2472
543.1634
543.4305
543.4855
543.4863
543.387
543.1787
543.2958
543.1462
543.4986
543.1048
542.9691
543.4539
543.0685
543.3081
542.7601
542.7185
542.9774
543.1137
543.2011
542.9951
543.4212
543.1361
543.0315
543.3679
544.7257
540.4076
543.2717
543.8213
543.3605
543.2508
543.3671
543.0116
543.5069
543.3995
543.6391
543.3228
544.0764
543.5194
543.7297
543.7196
543.2621
543.8641
543.8952
543.536
544.4782
542.6819
543.95
544.0951
540.6878
543.4244
540.5759
543.9314
544.3612
543.4912
539.7985
540.575
543.1297
543.3939
543.1313
543.0382
543.6676
543.5565
543.2211
543.035
543.2831
543.0621
543.1558
542.9542
543.5886
543.1875
542.3682
542.2782
543.3604
544.6193
542.9381
543.4526
543.6866
543.8136
544.3882
544.2913
542.528
544.4521
544.4933
544.6582
542.8891
543.2189
543.2926
543.3024
543.3364
543.614
543.3223
543.5969
543.3407
543.4258
543.3841
543.31
543.4046
542.9565
543.1516
543.0113
542.9212
543.0426
543.1017
543.019
543.0145
542.9881
543.0446
543.0817
543.0908
543.1317
543.0433
543.5083
543.7266
543.8043
543.8091
543.7506
543.7368
543.6062
543.5494
543.6403
543.7176
543.5665
543.7901
543.715
543.6875
543.8315
543.7588
543.9557
543.885
543.655
543.8142
543.3651
543.2765
544.1425
543.9479
544.1907
543.8006
543.7301
543.6382
543.7017
543.6447
543.5658
543.5689
543.4498
543.5708
543.4612
543.3822
543.5204
543.4453
543.6513
543.5736
543.9899
543.0659
543.0877
543.0929
543.2264
543.1293
543.2678
543.4097
543.3229
543.1875
543.8234
543.8863
544.0389
543.8179
543.9148
543.7294
543.7084
543.5658
543.7926
543.6916
543.9296
543.8508
543.9862
544.102
544.0105
543.8866
543.8037
543.847
543.786
543.7122
543.6419
543.8032
543.7223
543.8296
543.6777
544.2599
543.5
543.5109
543.4443
543.8498
543.6824
543.859
543.8684
543.6429
543.7449
543.6666
543.6942
543.9683
543.8045
544.1906
544.2825
544.0471
542.4726
544.1198
543.9514
544.0309
543.848
543.8222
543.7211
543.8798
543.8285
543.837
543.7833
543.878
543.7342
543.7273
543.3111
543.3951
543.4313
543.5586
543.4434
543.8813
543.8655
544.4373
544.4524
544.2617
544.3382
543.808
543.723
541.8186
544.4806
545.4661
544.2184
541.9986
543.3008
544.369
544.2185
544.2666
543.6874
543.781
542.7545
543.8676
543.705
543.7768
542.4395
543.7547
543.6901
543.9217
543.9922
544.111
543.5733
543.5244
543.3864
543.1789
543.6166
542.7133
543.1546
543.9331
543.8549
543.8929
544.1355
544.195
543.7266
543.6859
543.5277
543.0023
543.2206
543.4151
543.4838
542.9147
543.4876
543.4032
543.5594
542.9096
544.9026
543.8365
544.8362
544.3331
542.4814
542.6634
542.0887
543.8777
542.7236
543.4206
543.6653
542.6318
543.3271
543.5853
543.4128
543.9069
544.1334
543.5373
543.6699
544.6605
544.1071
543.9605
544.2552
544.5039
544.4567
544.6565
545.4514
544.7077
545.7557
544.5805
543.388
543.9986
543.0507
543.0723
543.1928
543.4118
543.1141
543.2723
543.2779
545.205
542.9519
541.1464
543.4184
546.6373
543.8578
544.5387
543.1748
545.1161
544.0447
544.2524
544.0703
543.4712
543.3766
542.791
543.0728
543.0589
542.9696
543.0738
543.5744
543.427
541.4686
543.456
543.665
543.4969
543.1666
543.7619
543.7429
543.9732
543.9501
543.7004
543.8423
543.6436
543.4595
543.4351
543.777
543.983
541.2638
544.0336
543.7482
543.9705
543.3449
543.7848
543.4233
542.9269
543.5684
543.8086
543.5475
543.8187
543.8188
544.1455
544.4182
543.4266
543.4076
544.3989
543.7765
542.2324
541.3752
543.5454
542.7142
542.87
543.5866
544.299
541.4232
540.883
543.4825
544.1026
543.9008
543.6297
542.8613
543.3419
543.56
542.8236
543.3033
543.8859
543.5794
543.3344
543.5951
543.3982
543.1989
543.514
543.247
543.3158
542.9373
544.4797
543.8335
543.9158
542.3928
542.6911
543.6497
544.6482
542.9964
543.6048
543.9895
544.1602
543.7877
543.6519
543.4856
543.5325
542.8273
542.8886
543.4196
543.3774
543.1263
543.3785
543.3472
543.4215
543.3072
543.779
543.3615
543.1341
543.6602
543.2813
543.3418
543.05
543.1171
543.2182
543.3624
543.3825
544.0353
544.2331
544.1596
544.3574
544.1509
543.3182
543.3738
544.8789
545.0352
546.3075
543.7897
544.0682
544.2239
543.3399
542.8477
544.1028
543.8004
543.5394
543.3895
543.5598
543.3356
543.9525
543.5338
544.1771
543.5648
543.5083
543.487
543.8085
543.8476
543.435
543.4536
543.2568
543.5145
543.943
543.7729
543.6566
543.8242
543.3694
544.0139
543.8643
543.8241
544.5418
543.2773
543.3451
543.0628
544.0427
544.0871
543.7951
543.2749
543.3472
543.3373
544.1609
544.5004
543.5522
543.985
543.839
543.4939
542.7944
542.9862
542.6087
542.9545
543.2118
543.1177
543.2519
543.0629
543.1837
543.9498
545.4472
545.1577
543.2995
542.9383
543.0961
542.887
543.3427
543.7616
543.15
542.8282
543.534
543.8735
543.8667
543.1583
543.1954
543.982
542.2892
544.0646
543.825
544.907
542.6763
543.3337
543.319
543.3075
542.8141
543.1151
542.9136
542.8606
543.0727
543.0106
542.6882
542.8916
542.6327
542.721
542.68
542.6414
543.0858
544.1117
543.7259
543.9885
543.8264
543.6574
543.823
543.6752
543.3678
542.6446
543.5145
543.3877
543.5165
543.3239
543.1967
542.9585
543.4796
542.5852
542.6826
543.9633
542.8205
543.6506
543.6802
543.3976
543.4919
543.6245
543.4976
542.4563
543.8492
543.7376
540.5307
543.7999
543.896
543.8931
543.8742
543.9103
543.9133
543.9656
542.4718
543.6328
543.3643
543.5473
544.0397
543.7051
543.9553
542.8413
543.0599
543.4609
543.9726
544.1113
543.9834
543.9817
544.1366
544.0068
544.1307
544.2194
544.0544
544.1656
543.4892
543.6797
543.595
544.4508
543.7971
542.3434
542.4582
543.8428
543.5923
543.8019
543.1332
543.3473
543.9676
543.5499
544.1391
544.4788
543.0648
543.265
543.7316
543.7091
543.4333
543.0479
544.055
543.9646
542.9844
543.0292
542.9888
544.0105
544.1174
543.9666
543.8921
543.8232
543.6331
543.5574
543.8389
544.0101
543.5138
543.7657
543.858
542.5962
544.0475
543.6326
543.5508
543.8387
544.25
543.979
544.1422
543.7393
543.5433
543.4448
542.7403
543.4538
543.0094
542.9874
543.9126
544.0173
543.7558
543.2916
543.2788
542.6952
542.9133
544.0437
544.0199
544.1175
543.809
544.1887
544.2483
544.1016
544.0768
543.0464
541.3961
543.6091
543.4321
543.8506
542.4874
542.9138
543.7009
543.1817
543.0204
543.4287
543.3453
543.6025
544.0785
543.6769
543.8023
544.147
543.9562
544.2538
544.1251
544.5074
544.2755
545.4161
542.3739
542.4153
542.6433
543.7638
543.84
543.8049
543.9182
543.902
543.8378
543.019
543.429
543.7223
543.4204
543.8656
544.8492
544.5901
542.783
542.7574
542.8897
542.6748
542.6809
542.5897
543.1619
542.7293
542.9876
543.0981
543.0278
542.4785
542.6977
542.7307
542.5556
543.3805
543.1931
542.6035
542.5472
542.6375
542.6928
542.3945
543.7315
542.9152
542.6813
542.57
542.54
542.8362
542.6752
543.2618
543.6059
544.0963
543.3503
542.9395
544.0492
542.5573
543.2532
544.1788
544.1537
543.8344
543.6617
544.6943
543.1682
543.1995
543.4304
542.9625
543.2012
543.0472
541.5901
540.075
542.6873
543.6906
543.496
542.5236
542.4489
545.941
543.7457
543.6387
543.9205
543.7823
543.8949
543.814
544.0177
543.816
543.6941
542.5664
543.6562
543.8161
543.5848
543.3406
543.5888
542.7055
544.0691
544.0386
543.9448
544.1518
542.2739
542.0109
543.7015
543.834
544.1872
543.868
543.3368
543.5029
544.1969
544.1785
543.2982
541.3146
541.7498
543.2559
543.1132
543.7525
543.6256
544.1882
543.5599
544.1971
542.7139
543.7773
544.079
544.1195
543.9422
545.0394
543.5031
543.7035
544.0094
543.4733
544.2498
543.6025
543.5748
543.6475
543.7916
542.4785
543.3043
542.8097
543.6394
543.7116
543.671
543.7355
543.2208
543.2227
543.6666
543.4937
543.6444
543.3638
540.1988
541.0354
541.7953
543.679
543.1229
543.149
543.1124
543.065
542.7897
542.6263
542.9209
543.172
542.9637
543.7011
543.0358
542.8619
543.6301
543.7573
543.7331
543.099
543.4861
544.9732
543.2459
543.4438
543.0499
542.5008
543.0173
543.144
543.6276
543.4355
543.8853
547.1627
545.2531
539.2589
542.1815
539.514
543.1323
543.1415
543.4892
542.9189
543.1897
543.5954
542.4726
542.6991
542.0359
542.9118
542.7857
542.1135
543.325
543.098
543.2365
545.5164
543.7916
543.7041
544.787
545.2874
544.6563
542.9109
544.2782
544.2741
544.4472
543.9108
543.0226
543.1464
543.1063
542.9236
543.2266
542.8491
543.221
543.5583
545.0521
543.5092
543.4521
542.7032
542.5761
542.9988
543.7667
542.8317
543.4646
543.9511
542.5242
542.7783
543.5617
542.1919
542.1267
542.4454
543.7729
545.476
544.0545
545
547.0812
546.5988
542.4073
543.3224
543.5668
543.3258
543.2478
543.0228
543.9535
544.1438
543.7571
543.6114
543.5455
543.7418
543.5881
543.2203
543.0995
543.7408
543.9565
542.3108
542.853
542.9963
544.5048
543.145
544.0768
542.663
543.191
543.1113
542.3364
542.8003
542.8903
542.4882
542.76
542.95
543.2095
543.0076
544.0892
542.1043
543.2274
542.7536
542.7222
542.8564
542.8134
543.1971
543.1406
543.629
543.2096
542.5006
543.4186
543.3239
543.305
543.4591
544.0399
542.6594
540.9461
543.2967
543.622
542.7227
544.4811
545.6002
543.6288
542.2891
544.0474
543.5413
543.6332
542.8667
544.2523
544.363
544.1143
544.1356
544.256
544.1432
544.3087
544.3472
542.816
544.2243
543.1785
542.934
542.6884
544.2462
544.1272
544.4736
543.0811
542.7853
543.0241
542.81
543.0932
544.1073
543.2138
543.6262
542.5952
542.6658
542.7588
542.8401
543.1812
542.2442
542.7573
544.1126
544.0041
542.6725
543.3886
543.7908
542.9296
543.0405
544.1269
543.9688
544.2123
542.54
542.5073
542.5987
543.1704
542.8894
542.8901
542.8633
542.7201
542.412
542.994
542.7169
542.7646
542.8663
542.8582
543.1094
542.8551
542.6732
544.9964
543.5248
542.5561
542.7767
542.7925
543.6305
544.5527
542.448
542.5484
542.3108
542.8786
543.3498
543.8573
542.2515
541.5708
542.6195
543.9834
543.0074
542.8841
543.9004
543.8959
544.0711
543.978
544.3956
543.9031
543.4091
543.2229
544.2105
543.844
543.3865
543.1878
543.1075
543.648
544.1803
544.0461
543.5328
542.7812
543.1368
542.3977
543.5148
543.6541
543.3403
543.7192
543.7505
543.2088
542.8376
542.3663
543.1855
542.6216
542.8043
542.9601
542.9327
542.8097
543.8642
543.7336
543.8803
543.154
543.9217
543.3872
544.8891
544.1989
542.6128
542.7919
542.896
543.1057
545.83
543.2062
543.226
544.0801
544.1749
542.8145
543.4742
544.098
544.2341
543.5038
542.8264
543.7857
543.2267
542.5995
544.1506
542.7244
544.1176
543.7106
543.7206
544.9025
543.4298
542.2789
543.1472
542.9076
543.1114
543.6875
543.135
543.1619
542.6593
542.7136
543.6766
543.0744
543.0543
543.3955
544.0367
543.9745
543.3486
543.3594
543.1521
542.7907
542.9613
543.5358
542.4241
543.7252
542.788
542.7707
546.1433
544.2818
543.0937
543.5056
543.1001
543.3675
543.8715
543.2376
542.5231
544.1145
543.9795
543.9689
543.2568
543.35
543.5282
543.699
543.7921
544.0809
543.1107
544.0906
544.0475
543.9814
542.5321
544.1894
544.078
544.1052
542.4826
544.3379
542.5696
544.4009
544.2773
544.1905
543.0013
543.004
542.8661
543.1303
542.9975
543.0572
543.7447
543.4129
543.5516
543.1909
542.95
543.0667
543.7688
543.0084
542.9781
543.4071
543.2866
542.5645
542.3644
543.9364
543.32
543.3194
543.9637
544.1945
543.0056
542.8348
544.9289
544.5406
546.0609
544.5399
544.6391
544.5723
544.4388
544.7945
544.2677
543.4865
543.9554
542.8702
542.8918
543.9321
543.368
542.722
542.4307
543.0401
543.4507
543.6315
542.9575
544.2748
542.4922
542.7174
542.6895
541.9532
541.7446
543.6846
544.0483
540.0809
542.792
543.7599
543.9308
543.2585
543.9821
543.9486
542.9805
544.6405
543.997
544.2321
542.4151
543.7774
543.7713
543.2206
542.9636
543.514
543.5614
543.5077
543.3797
543.0689
543.1284
542.9311
544.1678
544.1842
544.2425
543.1932
543.0887
543.0193
543.2356
543.0204
543.1512
543.0219
542.9337
543.5526
543.5301
543.5059
542.7716
543.9512
543.7456
544.1419
544.0317
543.9389
542.0935
542.2986
543.7303
543.4311
543.8563
544.0834
543.7876
544.2841
544.1809
542.9595
542.8541
542.7097
543.0074
543.5881
542.9953
545.0311
543.7798
539.8368
543.5836
543.1228
542.995
538.2065
543.6116
543.0259
543.0059
542.8888
543.3371
543.1943
542.8442
542.9339
543.2816
543.1857
543.2574
543.2534
543.2267
543.5785
542.4288
542.2521
542.6493
542.5633
542.2232
542.7725
542.9387
544.0575
544.1079
543.1808
541.9545
542.4954
542.1568
544.2147
543.2903
542.8787
542.8751
542.7557
542.9976
542.7971
543.0355
544.0026
544.0209
546.272
544.0087
543.7143
543.526
542.6463
542.6775
541.8546
544.1229
542.5199
543.9683
543.5319
544.2926
543.7175
542.7071
542.692
542.6347
543.7805
544.1434
544.3077
544.2502
545.4179
543.7759
543.3887
543.412
543.3742
542.4752
542.8905
544.1948
543.2127
543.906
543.8564
543.1605
544.0567
543.9968
543.4559
543.0388
542.9526
545.5416
542.946
543.0013
543.2622
542.5053
542.3035
542.5234
543.3948
540.3222
544.2554
544.078
544.0118
543.2854
543.3603
543.1228
542.9756
543.12
543.0117
543.0495
543.5201
543.6441
543.794
546.1049
541.9998
543.3591
543.5404
543.4896
543.8003
543.5255
543.9563
543.75
542.6613
542.9871
542.1318
542.6392
543.747
544.8023
544.0116
544.3895
543.8109
544.0672
543.0658
544.4769
542.3415
543.7232
543.3189
543.9253
544.0164
543.1398
543.0757
543.3324
542.8683
543.7067
543.9199
543.8216
544.0242
543.8433
542.1665
542.3216
542.195
543.1081
543.7185
543.1002
543.3505
542.8411
543.1594
543.5712
543.3289
543.7422
543.5908
543.799
543.5652
542.8975
542.4359
543.2296
542.8968
544.1365
543.7779
542.6943
543.1396
544.1673
544.0416
543.7914
538.4339
539.8512
544.2648
543.0388
543.1706
542.899
543.1386
543.3393
543.3014
543.0154
542.7334
543.4643
543.7335
543.9345
543.9131
542.9242
542.5251
543.4474
541.9927
541.9596
543.1236
543.6313
543.5935
543.1923
543.1575
543.4152
543.3617
543.0714
542.6983
543.1205
542.608
542.5852
540.8265
543.2813
543.2144
542.7672
544.0884
543.9009
544.0183
543.7077
543.3212
543.4648
543.2618
542.467
543.4827
543.1515
542.2303
542.5314
542.7197
542.722
542.8936
543.5316
545.961
544.2967
544.037
543.7119
542.7553
539.4564
542.6433
542.3426
543.5285
547.029
543.8658
544.0408
543.1519
544.0198
543.7245
544.5455
542.4447
542.4012
543.5401
544.2625
542.9307
543.5775
543.806
544.0136
543.8981
543.0126
543.1394
543.1215
542.8435
543.0997
543.0967
543.4047
544.283
543.7264
543.0789
543.4651
543.7061
543.647
543.8505
543.7508
543.4966
543.1701
542.5075
542.3029
542.9881
543.8215
543.8498
543.0903
543.0665
543.0063
543.0127
543.1377
543.2697
543.2657
543.2378
543.0085
544.3362
543.8992
544.1278
544.0334
543.9537
542.2823
542.4302
543.1643
542.8221
543.1977
542.5533
542.6048
543.2589
543.5533
543.8497
543.1926
543.0362
543.0201
543.7487
542.9192
543.8934
543.7561
543.9309
544.0107
542.2763
536.5092
536.0733
543.6514
543.4387
542.9789
543.8597
543.4831
542.4902
542.7673
543.9063
543.8009
543.5342
542.7949
542.9133
541.3459
542.6648
543.1063
542.3859
542.994
543.9721
542.7965
542.876
542.8813
544.346
541.0483
542.9088
542.9985
544.0167
544.2252
542.8869
543.7276
544.0756
543.9736
543.5386
543.8484
543.7756
543.4139
542.8264
543.5301
543.9269
544.0279
542.5375
542.8526
544.2268
543.0762
542.6139
543.1115
543.3211
543.5724
543.5159
543.5197
543.8723
544.1148
543.8666
543.8561
543.8545
542.9388
543.1598
541.8405
542.6858
542.7975
542.7599
542.5405
543.008
542.8703
543.194
542.8679
543.4983
542.7876
542.7836
543.4994
543.4456
539.2607
542.9992
544.1768
544.1698
543.9403
543.0696
542.9456
542.7402
543.8807
543.6707
543.267
542.9545
543.0649
543.2503
543.1568
543.9448
544.3952
543.3433
543.5643
543.014
542.9309
543.516
543.2284
543.2066
543.3684
540.7084
541.8328
543.8639
543.3913
543.3378
542.8673
543.0516
541.6691
542.9971
542.2313
543.1102
544.3185
543.063
543.3786
542.2165
544.2983
543.2934
542.955
542.5605
542.5835
543.8505
542.8331
542.9945
543.5798
541.8088
543.0765
542.8798
542.3269
541.869
541.9876
543.4299
542.594
543.7805
543.5916
543.2131
543.7724
540.1153
542.6743
542.3219
543.8362
542.945
543.2743
543.1139
542.0587
543.9477
543.3699
543.3102
541.5207
545.3831
541.9846
542.4847
542.0038
543.0492
542.2549
542.2542
542.741
542.8546
543.0365
543.1145
542.9815
543.163
544.1465
544.1554
543.9576
543.6225
545.244
543.8602
542.8027
543.0149
543.4568
543.5203
543.417
542.9
541.9868
543.3522
543.5148
543.6078
542.8397
543.6371
543.2347
542.854
544.1125
543.4596
542.3717
542.1037
544.6239
544.007
543.2849
543.8187
543.4601
543.9514
543.1657
542.7745
543.3861
543.6239
543.658
543.6096
543.4526
544.3477
543.9258
539.4517
541.6694
543.8784
543.4421
543.2567
543.6024
543.513
543.0138
543.202
541.9963
542.5226
542.5166
542.9266
544.3856
543.9283
545.1767
546.0125
543.1074
543.1206
543.2397
543.0006
542.3593
544.3654
543.7754
543.1098
542.5817
541.0003
543.4174
542.4329
543.6932
543.4605
543.8598
542.2443
542.7376
542.6427
543.5875
543.8343
543.3988
540.9262
542.4109
543.4525
543.0985
539.3265
541.3737
544.2474
543.6072
543.1019
543.1082
543.0894
542.4737
543.2858
543.6054
543.5392
542.4749
543.5114
542.8192
541.6452
542.6455
543.3815
543.21
542.6662
542.558
542.2412
544.9051
542.805
543.0878
543.5515
543.4056
543.5756
543.7685
542.8904
542.6421
543.3519
543.2227
542.1258
542.5108
544.3195
544.0759
543.8653
541.8246
543.9715
543.3789
542.6751
542.7062
543.6126
544.2794
543.8014
543.116
543.4293
544.0244
541.9255
542.3486
543.6981
543.7426
543.7035
543.9875
543.7378
543.2852
543.3941
542.7989
542.7742
542.5455
542.5239
542.5708
541.8399
542.3543
542.5638
543.3032
543.5033
541.5055
541.8722
541.8104
543.6552
542.6939
543.4573
543.953
541.7634
541.4001
543.8725
538.4788
542.9991
543.1933
543.1284
543.107
542.5625
540.8305
541.0812
542.8814
544.0254
542.6583
543.1214
542.8012
543.9192
542.9605
542.7975
542.5651
544.0382
544.0614
543.7122
543.5612