/*--------------------------------*- C++ -*----------------------------------*\
  =========                 |
  \\      /  F ield         | OpenFOAM: The Open Source CFD Toolbox
   \\    /   O peration     | Website:  https://openfoam.org
    \\  /    A nd           | Version:  11
     \\/     M anipulation  |
\*---------------------------------------------------------------------------*/
FoamFile
{
    format      ascii;
    class       volScalarField;
    location    "0";
    object      yPlus;
}
// * * * * * * * * * * * * * * * * * * * * * * * * * * * * * * * * * * * * * //

dimensions      [0 0 0 0 0 0 0];

internalField   uniform 0;

boundaryField
{
    inlet
    {
        type            calculated;
        value           uniform 0;
    }
    outlet
    {
        type            calculated;
        value           uniform 0;
    }
    wall
    {
        type            calculated;
        value           nonuniform List<scalar> 
40948
(
45.68335
45.65351
45.65587
45.65176
45.64277
45.64747
45.61863
45.62584
45.53409
45.49146
45.517
45.47959
45.48359
45.48189
45.48591
45.46592
45.47717
45.48274
45.47943
45.46597
45.47962
45.46591
45.46258
45.46584
45.46225
45.46583
45.46203
45.48251
45.47859
45.46579
45.47853
45.4825
45.47849
45.46579
45.47844
45.46579
45.46173
45.46579
45.46173
45.46579
45.46173
45.46581
45.46175
45.46579
45.46175
45.46579
45.46173
45.46579
45.46173
45.46579
45.46173
45.46579
45.46173
45.46579
45.46174
45.46577
45.46172
45.46577
45.46171
45.46578
45.46172
45.46577
45.46172
45.46577
45.46171
45.46579
45.46172
45.46581
45.46175
45.4825
45.47845
45.48249
45.49512
45.4825
45.49512
45.48251
45.49514
45.48251
45.49514
45.4825
45.49514
45.4825
45.49514
45.48249
45.49512
45.4658
45.47842
45.46581
45.46175
45.46581
45.46176
45.46581
45.46176
45.46581
45.46176
45.4825
45.47845
45.4658
45.47844
45.46579
45.46173
45.46579
45.46173
45.46579
45.46173
45.46579
45.46174
45.46577
45.46172
45.46577
45.46171
45.4825
45.47838
45.4825
45.49505
45.46577
45.47838
45.46577
45.46171
45.46578
45.46172
45.46577
45.46172
45.46579
45.46172
45.46579
45.46173
45.48249
45.47842
45.4825
45.49512
45.4825
45.49514
45.48249
45.49512
45.48249
45.49511
45.4825
45.49512
45.4825
45.49514
45.4825
45.49514
45.48249
45.49512
45.46581
45.47844
45.46579
45.46175
45.46579
45.46173
45.46579
45.46173
45.46579
45.46173
45.46577
45.46172
45.46579
45.46172
45.46579
45.46173
45.46579
45.46173
45.46579
45.46173
45.46579
45.46173
45.46579
45.46173
45.4825
45.47844
45.4825
45.49514
45.48249
45.49512
45.48249
45.49511
45.48248
45.49511
45.4658
45.47842
45.46579
45.46173
45.46579
45.46173
45.46579
45.46173
45.46579
45.46173
45.4658
45.46173
45.4825
45.47844
45.4825
45.49514
45.4825
45.49514
45.4825
45.49514
45.48249
45.49512
45.46581
45.47844
45.46579
45.46175
45.46579
45.46174
45.46577
45.46172
45.46577
45.46171
45.46577
45.46171
45.46579
45.46172
45.46579
45.46173
45.48249
45.47842
45.48249
45.49511
45.4825
45.49512
45.4825
45.49514
45.48249
45.49512
45.48249
45.49511
45.4825
45.49512
45.46579
45.47844
45.46579
45.46173
45.46579
45.46173
45.46579
45.46173
45.46579
45.46173
45.46579
45.46173
45.46579
45.46173
45.46581
45.46175
45.48248
45.47844
45.48248
45.49511
45.48249
45.49511
45.48249
45.49511
45.48248
45.49511
45.46579
45.47842
45.46579
45.46173
45.46579
45.46173
45.46579
45.46173
45.46579
45.46173
45.46577
45.46172
45.46578
45.46172
45.46577
45.46172
45.46577
45.46171
45.46577
45.46171
45.46577
45.46171
45.46577
45.46171
45.46579
45.46172
45.46579
45.46173
45.46579
45.46173
45.46579
45.46173
45.46579
45.46173
45.46581
45.46175
45.4825
45.47845
45.4658
45.47848
45.46583
45.46188
45.46586
45.46205
45.46591
45.4623
45.466
45.46263
45.48282
45.47978
45.46633
45.48068
45.46686
45.46599
45.46782
45.46986
45.46889
45.47506
45.46918
45.47861
45.4536
45.46562
45.45385
45.45234
45.46641
45.4577
45.42734
45.41519
45.44457
45.39294
45.48695
45.45771
45.46948
45.46696
45.47141
45.44935
45.46595
45.44642
45.48164
45.46605
45.47071
45.46137
45.33983
45.28552
45.66716
45.68341
45.60214
45.54239
45.50769
45.46498
45.46636
45.46601
45.46584
45.48251
45.4658
45.46579
45.48251
45.48251
45.48252
45.46579
45.46577
45.48248
45.46579
45.4658
45.48251
45.48253
45.48253
45.48252
45.46582
45.4658
45.4658
45.4825
45.46577
45.48248
45.46577
45.4825
45.48252
45.46578
45.48251
45.48251
45.46578
45.46579
45.46581
45.46582
45.4658
45.46579
45.48251
45.48251
45.46578
45.48252
45.4825
45.46579
45.46579
45.4825
45.46579
45.46582
45.48251
45.46581
45.4658
45.48252
45.48251
45.46582
45.4658
45.46579
45.4658
45.46579
45.4825
45.48251
45.48251
45.4825
45.48251
45.46579
45.48251
45.46578
45.48248
45.46579
45.46579
45.46579
45.46577
45.46576
45.46577
45.46575
45.46552
45.46571
45.46608
45.46845
45.45408
45.69181
45.69875
45.69971
45.69882
45.70127
45.68852
45.69519
45.68142
45.69225
45.67183
45.66932
45.69996
45.67965
45.67927
45.69261
45.67376
45.66531
45.68166
45.68142
45.68842
45.68071
45.67863
45.68836
45.68804
45.69102
45.68549
45.69708
45.68057
45.68192
45.69705
45.69338
45.69101
45.69488
45.68731
45.68453
45.69193
45.69211
45.68387
45.69436
45.68577
45.6876
45.68958
45.69095
45.69244
45.68927
45.69322
45.69197
45.6877
45.68852
45.68403
45.68748
45.68902
45.6854
45.68355
45.68731
45.69124
45.68829
45.69067
45.6883
45.68568
45.68929
45.68137
45.68077
45.68992
45.68468
45.69104
45.69383
45.68854
45.69024
45.68077
45.68768
45.68729
45.68297
45.69151
45.69135
45.69274
45.68893
45.67847
45.68758
45.68606
45.6825
45.6879
45.69194
45.68944
45.68765
45.68655
45.68814
45.67056
45.68626
45.66892
45.66941
45.6808
45.67634
45.67994
45.67886
45.68644
45.68367
45.69279
45.68115
45.70986
45.69714
45.68654
45.7037
45.66599
45.68455
45.69488
45.69337
45.69397
45.7006
45.69131
45.68968
45.68985
45.6879
45.68344
45.6929
45.68542
45.69093
45.68088
45.68776
45.67206
45.67859
45.68482
45.67308
45.68197
45.68526
45.67333
45.67353
45.68495
45.6817
45.70378
45.70038
45.69115
45.7013
45.66668
45.6754
45.66559
45.65808
45.68004
45.67737
45.67304
45.67829
45.68
45.67428
45.68916
45.69101
45.69017
45.6929
45.68766
45.69331
45.68725
45.68495
45.68593
45.68483
45.68774
45.68487
45.68766
45.68576
45.68558
45.6884
45.68503
45.68602
45.69059
45.68677
45.68916
45.69016
45.68743
45.68911
45.68796
45.68796
45.6929
45.68883
45.69133
45.69301
45.6887
45.69247
45.69156
45.69385
45.68876
45.69193
45.69059
45.69277
45.68192
45.68839
45.70483
45.69104
45.69866
45.70374
45.68905
45.69426
45.69232
45.69226
45.69051
45.69899
45.68842
45.69831
45.69236
45.69304
45.70603
45.69898
45.68399
45.68472
45.6802
45.6756
45.68369
45.68857
45.67703
45.68764
45.68094
45.68059
45.70125
45.69219
45.68606
45.70715
45.67278
45.66765
45.56158
45.57057
45.4202
45.4719
45.46849
45.53078
45.46425
45.45769
45.46829
45.46886
45.46175
45.45736
45.46965
45.46806
45.45425
45.46834
45.46953
45.4697
45.41179
45.46476
45.6421
45.58083
45.51764
45.49575
45.46614
45.48293
45.48261
45.48253
45.46582
45.46578
45.48251
45.46578
45.46578
45.4825
45.46577
45.48249
45.46579
45.48252
45.46582
45.46581
45.46581
45.4658
45.48253
45.46582
45.46582
45.4658
45.4658
45.46577
45.4825
45.46579
45.48252
45.46579
45.46579
45.46579
45.46578
45.4658
45.4658
45.46581
45.48253
45.46582
45.46579
45.46578
45.46578
45.46579
45.48251
45.4825
45.46581
45.48249
45.46579
45.46582
45.48251
45.46581
45.46583
45.46581
45.48253
45.48251
45.48251
45.46582
45.48251
45.46579
45.48249
45.46579
45.46579
45.48252
45.48252
45.4658
45.4658
45.48249
45.46576
45.46577
45.48251
45.46582
45.4825
45.48247
45.48247
45.46577
45.48234
45.48221
45.48271
45.4661
45.44206
45.68135
45.47106
45.45872
45.46142
45.46306
45.46337
45.47116
45.44151
45.47669
45.45796
45.44235
45.30445
45.52803
45.51422
45.46055
45.48111
45.47934
45.47865
45.47854
45.46181
45.47848
45.47847
45.47847
45.49515
45.46172
45.47838
45.47838
45.47845
45.46184
45.47857
45.47859
45.47859
45.49524
45.46185
45.46184
45.46183
45.47844
45.46171
45.49503
45.46172
45.49515
45.4785
45.46181
45.47848
45.47847
45.46181
45.46183
45.46184
45.47856
45.46184
45.46183
45.47847
45.47847
45.46181
45.49515
45.49514
45.46175
45.47842
45.47848
45.46184
45.47854
45.47857
45.46193
45.46192
45.49524
45.49523
45.47854
45.46184
45.47848
45.46173
45.47842
45.47848
45.47848
45.49515
45.49515
45.47848
45.46183
45.49512
45.46172
45.47836
45.47844
45.46184
45.47848
45.47837
45.47832
45.46171
45.47794
45.47702
45.47871
45.46333
45.46003
45.45741
45.45374
45.43247
45.5166
45.48389
45.46419
45.48019
45.47886
45.49524
45.46184
45.46181
45.49514
45.47847
45.47848
45.47844
45.46171
45.49503
45.46173
45.4785
45.47854
45.47859
45.47859
45.47857
45.47856
45.46184
45.46184
45.47848
45.46172
45.47836
45.47838
45.47844
45.49517
45.46181
45.47848
45.47848
45.4618
45.46183
45.46184
45.46184
45.47854
45.46184
45.47848
45.47847
45.4618
45.4785
45.49514
45.47844
45.46175
45.49512
45.46183
45.46185
45.49523
45.46192
45.46193
45.47857
45.49524
45.47854
45.47853
45.46184
45.47843
45.46173
45.49512
45.47848
45.47848
45.49515
45.49515
45.46183
45.47848
45.47842
45.47836
45.46172
45.47848
45.46184
45.47842
45.47832
45.47837
45.46161
45.47739
45.47742
45.47975
45.46949
45.45055
45.47268
45.6514
45.4479
45.47064
45.46273
45.56065
45.61098
45.58429
45.54461
45.65592
45.63605
45.63987
45.56348
45.46191
45.48066
45.48582
45.48682
45.48012
45.48991
45.48742
45.47872
45.48774
45.49869
45.47061
45.48171
45.46955
45.48024
45.45276
45.46307
45.48442
45.46233
45.48419
45.49382
45.48398
45.47746
45.48384
45.49317
45.45166
45.461
45.45171
45.44494
45.46774
45.461
45.4678
45.47701
45.46785
45.4771
45.4678
45.4771
45.4678
45.4771
45.46779
45.4771
45.46779
45.47711
45.46778
45.47704
45.46768
45.47693
45.46762
45.47683
45.46767
45.47683
45.46767
45.47689
45.46762
45.47683
45.46773
45.47688
45.46779
45.47699
45.4839
45.47711
45.49985
45.49316
45.48379
45.47719
45.49992
45.4773
45.49993
45.49335
45.49992
45.49335
45.4838
45.47725
45.49986
45.47719
45.48376
45.49313
45.45178
45.46113
45.46795
45.46121
45.4679
45.4772
45.45178
45.46111
45.48386
45.46113
45.48381
45.49314
45.45168
45.46108
45.4678
45.46106
45.46779
45.4771
45.46778
45.47704
45.46772
45.47698
45.46766
45.47686
45.48358
45.47675
45.49955
45.4927
45.48358
45.4927
45.46765
45.47676
45.46767
45.47682
45.46773
45.47693
45.46769
45.47694
45.4678
45.47705
45.48376
45.47712
45.49986
45.49313
45.49991
45.49323
45.49986
45.49323
45.49981
45.49317
45.4999
45.49322
45.49991
45.49327
45.49991
45.49322
45.49986
45.49323
45.48386
45.49318
45.46785
45.47722
45.46775
45.47705
45.46774
45.47701
45.45166
45.46095
45.46769
45.46095
45.46774
45.47701
45.46774
45.47706
45.46775
45.47701
45.4678
45.47705
45.4678
45.4771
45.45173
45.46111
45.46778
45.44512
45.49985
45.47713
45.49985
45.49318
45.4998
45.49318
45.4998
45.49318
45.48376
45.49313
45.45168
45.46108
45.4678
45.46106
45.4678
45.4771
45.4678
45.4771
45.4678
45.4771
45.48386
45.47716
45.49991
45.49323
45.49996
45.49327
45.49991
45.49327
45.49986
45.49322
45.46773
45.47707
45.4678
45.46107
45.46778
45.47699
45.46767
45.47693
45.46762
45.47683
45.46763
45.47683
45.45161
45.46084
45.46775
45.46095
45.48381
45.47712
45.49981
45.49318
45.49986
45.49317
45.48385
45.47723
45.49986
45.47724
45.49981
45.49317
45.4998
45.49313
45.46778
45.47713
45.4678
45.46111
45.4678
45.4771
45.4678
45.4771
45.4678
45.4771
45.4678
45.4771
45.4678
45.4771
45.46785
45.4771
45.46778
45.46116
45.4998
45.47713
45.49976
45.49313
45.49976
45.49308
45.4998
45.49313
45.48376
45.49313
45.45168
45.46108
45.4678
45.46106
45.46775
45.47705
45.46774
45.47701
45.46773
45.47699
45.46772
45.47692
45.46772
45.47698
45.45154
45.46083
45.46766
45.46076
45.46765
45.4768
45.45154
45.46076
45.46767
45.46078
45.45166
45.46089
45.4678
45.461
45.4678
45.4771
45.45168
45.46106
45.46785
45.46106
45.46778
45.46111
45.46791
45.46114
45.45221
45.44549
45.45289
45.44626
45.47002
45.46366
45.45524
45.4655
45.47301
45.45181
45.49217
45.48715
45.46719
45.47806
45.46634
45.46265
45.47398
45.46311
45.47807
45.47184
45.48204
45.48509
45.42678
45.45194
45.4248
45.42592
45.50494
45.2998
45.44649
45.46558
45.45781
45.46451
45.46853
45.52128
45.40111
45.57748
45.48049
45.47289
45.47005
45.44851
45.46388
45.47017
45.46096
45.47857
45.455
45.46351
45.44988
45.45617
45.44044
45.52175
45.5322
45.52994
45.46653
45.48167
45.44973
45.45718
45.46647
45.61552
45.60077
45.59834
45.60801
45.47724
45.46277
45.47421
45.4853
45.48418
45.46823
45.46805
45.49993
45.4679
45.48406
45.48386
45.45153
45.49949
45.45166
45.48408
45.48428
45.4845
45.48445
45.48444
45.46828
45.46823
45.46818
45.46795
45.46774
45.48352
45.48363
45.48386
45.48398
45.46805
45.48401
45.48406
45.45191
45.45201
45.46819
45.46822
45.46815
45.46815
45.48399
45.48395
45.46803
45.48405
45.48379
45.48384
45.46783
45.49985
45.46813
45.45213
45.50027
45.46847
45.46857
45.48432
45.50032
45.4682
45.46815
45.46815
45.48386
45.46779
45.49985
45.48401
45.484
45.49996
45.49997
45.4681
45.46794
45.48374
45.48355
45.46766
45.48406
45.46817
45.48379
45.48328
45.48349
45.46753
45.47984
45.47926
45.49178
45.48273
45.45955
45.4671
45.45352
45.47341
45.48855
45.46608
45.70964
45.70621
45.69272
45.66876
45.47041
45.45969
45.48096
45.69553
45.69771
45.68875
45.67926
45.69436
45.68894
45.67907
45.69719
45.66856
45.67526
45.68425
45.6787
45.68137
45.68585
45.66929
45.67423
45.69533
45.68562
45.69177
45.70265
45.69387
45.68416
45.70762
45.70073
45.68666
45.69774
45.69851
45.68977
45.68829
45.69972
45.69111
45.68892
45.69683
45.69747
45.69313
45.69276
45.6956
45.69233
45.69763
45.6994
45.68827
45.69274
45.68797
45.68468
45.68798
45.68831
45.68997
45.68938
45.68824
45.68887
45.68768
45.68934
45.68618
45.68418
45.68849
45.68893
45.68969
45.68933
45.68282
45.68711
45.68531
45.68255
45.6931
45.68963
45.68736
45.68589
45.68252
45.67908
45.68332
45.676
45.68939
45.68442
45.68621
45.68656
45.6883
45.68796
45.68301
45.67998
45.70039
45.69365
45.68893
45.69911
45.69401
45.69359
45.6819
45.68926
45.6846
45.68047
45.66807
45.67693
45.68263
45.67387
45.69794
45.699
45.6836
45.70354
45.6898
45.68598
45.69968
45.69501
45.70057
45.69812
45.69778
45.68973
45.70059
45.69669
45.68711
45.69086
45.68602
45.6854
45.69681
45.69018
45.69478
45.69076
45.69571
45.69822
45.69317
45.70377
45.68485
45.69765
45.67026
45.68057
45.6711
45.66153
45.68068
45.66785
45.70508
45.6889
45.69805
45.70266
45.67378
45.68766
45.67584
45.68199
45.68021
45.68476
45.67565
45.68081
45.68102
45.67762
45.69023
45.6847
45.69574
45.68945
45.69509
45.69343
45.68915
45.69504
45.68561
45.6894
45.68406
45.68571
45.68816
45.68904
45.6903
45.69101
45.68612
45.6865
45.68724
45.68649
45.69136
45.68852
45.68998
45.69073
45.68822
45.68969
45.68814
45.68725
45.68907
45.6862
45.69288
45.68479
45.6962
45.69042
45.69574
45.69605
45.69067
45.69198
45.69625
45.69536
45.69619
45.69438
45.70217
45.7074
45.68641
45.6894
45.69654
45.68199
45.68838
45.68461
45.69523
45.67768
45.70049
45.69244
45.69469
45.69478
45.6663
45.68182
45.68099
45.66984
45.6914
45.69137
45.6869
45.68773
45.68104
45.67214
45.6892
45.6778
45.71249
45.69729
45.67259
45.50843
45.48995
45.52058
45.47046
45.46938
45.67274
45.43767
45.44055
45.4499
45.4764
45.38363
45.55726
45.38754
45.42517
45.41892
45.46203
45.31941
45.43067
45.4634
45.47832
45.53787
45.46987
45.46652
45.51289
45.47306
45.51934
45.47419
45.48702
45.4685
45.48428
45.46805
45.48405
45.484
45.484
45.49998
45.45161
45.48357
45.48358
45.4839
45.46822
45.46832
45.48448
45.48443
45.48427
45.46827
45.46822
45.4681
45.48386
45.46765
45.48341
45.46772
45.48385
45.4841
45.46803
45.484
45.48395
45.46806
45.46815
45.46823
45.48435
45.46823
45.45197
45.484
45.48398
45.46805
45.50003
45.49991
45.46784
45.46768
45.48401
45.45209
45.48424
45.46832
45.4686
45.46853
45.50036
45.50034
45.4843
45.4682
45.46795
45.45168
45.46768
45.48401
45.46795
45.49998
45.49998
45.48403
45.46816
45.49988
45.45159
45.46739
45.48386
45.46819
45.48409
45.46744
45.48327
45.46771
45.48216
45.47774
45.48546
45.45879
45.47579
45.46218
45.47787
45.66624
45.49341
45.46083
45.44479
45.58939
45.49329
45.3912
45.46553
45.50273
45.48383
45.4889
45.47703
45.49237
45.47637
45.49334
45.47771
45.49334
45.46067
45.4607
45.49313
45.46153
45.47754
45.49341
45.49334
45.46142
45.47741
45.47708
45.46107
45.4773
45.47771
45.47783
45.47788
45.494
45.47813
45.4784
45.46214
45.49384
45.4456
45.47746
45.47708
45.47716
45.49316
45.4773
45.47748
45.47747
45.47741
45.46138
45.4777
45.47783
45.47776
45.47763
45.46148
45.46137
45.47746
45.47741
45.47752
45.46131
45.47711
45.4767
45.47676
45.47717
45.46148
45.47776
45.47781
45.46195
45.47746
45.46142
45.47811
45.47818
45.47596
45.4748
45.47457
45.46891
45.476
45.47683
45.47619
45.46082
45.47764
45.47757
45.47706
45.47653
45.46089
45.47736
45.47758
45.49341
45.49328
45.49335
45.47735
45.49328
45.46106
45.46112
45.46148
45.46177
45.46187
45.49392
45.49395
45.47828
45.47829
45.47795
45.46171
45.46152
45.49329
45.46106
45.4771
45.47719
45.49344
45.47747
45.49341
45.4934
45.46143
45.46171
45.47786
45.47774
45.46152
45.46142
45.49339
45.49335
45.47742
45.47745
45.47719
45.47686
45.4766
45.47692
45.47729
45.47759
45.47775
45.46187
45.47799
45.49411
45.4942
45.47795
45.47764
45.46106
45.49265
45.46072
45.46106
45.49344
45.4774
45.4934
45.47753
45.47765
45.47779
45.46263
45.46802
45.4934
45.47748
45.4927
45.49568
45.47786
45.46191
45.49628
45.51796
45.67487
45.50459
45.56115
45.45799
45.46903
45.58545
45.47282
45.66883
45.49258
45.47574
45.48401
45.48182
45.46892
45.48147
45.47142
45.4954
45.48638
45.46472
45.48599
45.47847
45.47031
45.47743
45.48375
45.4767
45.46793
45.47612
45.46699
45.47607
45.48126
45.44653
45.46644
45.47608
45.46652
45.49074
45.49596
45.47595
45.48127
45.49088
45.48136
45.49096
45.49624
45.47604
45.48144
45.49083
45.48127
45.49075
45.49596
45.4906
45.49589
45.47551
45.48085
45.49046
45.48075
45.49039
45.49554
45.47559
45.48076
45.49052
45.48085
45.49067
45.49582
45.49082
45.49596
45.49103
45.49624
45.46172
45.4817
45.46187
45.4525
45.47662
45.46732
45.47662
45.46741
45.47672
45.4822
45.46172
45.46738
45.47626
45.46707
45.46151
45.4668
45.47644
45.46695
45.49096
45.49632
45.46141
45.48146
45.47628
45.46688
45.4761
45.48153
45.47628
45.48152
45.46141
45.46688
45.47604
45.46665
45.49076
45.48126
45.4906
45.49581
45.4756
45.48083
45.47537
45.46581
45.49016
45.48042
45.47523
45.48033
45.49016
45.48025
45.49039
45.4953
45.49047
45.49545
45.49067
45.49572
45.47595
45.48118
45.49095
45.48146
45.47626
45.4816
45.49127
45.48185
45.47631
45.48187
45.47638
45.46709
45.47639
45.46709
45.47647
45.46717
45.47631
45.46708
45.47639
45.46708
45.47634
45.46707
45.47619
45.46688
45.47595
45.46666
45.4759
45.46647
45.47608
45.48124
45.476
45.48132
45.4759
45.48109
45.47598
45.46646
45.49066
45.48118
45.49083
45.49598
45.47611
45.48143
45.47636
45.48152
45.44689
45.46695
45.47643
45.46704
45.49105
45.49639
45.47633
45.48168
45.47626
45.4669
45.47625
45.4669
45.47628
45.4816
45.46141
45.46688
45.49088
45.48146
45.47611
45.48145
45.47603
45.46665
45.47618
45.46666
45.47634
45.46689
45.49124
45.48179
45.47645
45.48198
45.49125
45.48197
45.47642
45.49666
45.47613
45.48168
45.49067
45.49597
45.47567
45.48102
45.49038
45.48075
45.49046
45.49554
45.47584
45.49563
45.4612
45.46644
45.4761
45.46657
45.47634
45.46689
45.47632
45.46699
45.46177
45.4671
45.47665
45.46739
45.47631
45.48188
45.47626
45.46699
45.47636
45.4816
45.46141
45.46688
45.49088
45.48138
45.47611
45.48144
45.47603
45.46664
45.47603
45.46656
45.47603
45.46656
45.49088
45.48136
45.46149
45.48146
45.47652
45.46704
45.47626
45.48176
45.4761
45.46682
45.47626
45.46682
45.47625
45.46698
45.46143
45.4668
45.47629
45.46686
45.47595
45.48144
45.47582
45.46639
45.49068
45.48108
45.47573
45.48103
45.47576
45.46614
45.47577
45.48083
45.4757
45.48082
45.47552
45.48067
45.46085
45.46587
45.46092
45.45129
45.47584
45.48083
45.46128
45.46644
45.49089
45.48135
45.46142
45.48145
45.46142
45.45207
45.47628
45.48153
45.44688
45.46687
45.4474
45.45242
45.46366
45.46833
45.48081
45.48569
45.46961
45.48974
45.45931
45.46578
45.46441
45.457
45.48872
45.47891
45.46951
45.48153
45.45336
45.45766
45.47015
45.46138
45.45306
45.46026
45.49907
45.46976
45.45023
45.46471
45.3931
45.48875
45.47377
45.5015
45.44065
45.4727
45.47748
45.47663
45.47404
45.47236
45.35609
45.38021
45.27957
45.47848
45.38761
45.48321
45.48398
45.62945
45.46547
45.54185
45.47655
45.62972
45.56215
45.47775
45.47382
45.46881
45.64385
45.58347
45.51601
45.47243
45.46371
45.46273
45.46853
45.49004
45.47683
45.47677
45.46758
45.46741
45.49292
45.47708
45.47675
45.4675
45.47605
45.48635
45.47727
45.4607
45.48023
45.46117
45.466
45.46091
45.47713
45.47811
45.4844
45.51012
45.49357
45.48286
45.47814
45.47801
45.46938
45.4841
45.47684
45.46768
45.44842
45.49219
45.4774
45.46222
45.47618
45.49018
45.47557
45.47604
45.46218
45.47684
45.49153
45.47669
45.46208
45.46229
45.47712
45.47742
45.46294
45.47719
45.46194
45.49163
45.47691
45.47683
45.47678
45.47617
45.47597
45.46157
45.47676
45.44773
45.47756
45.46355
45.47859
45.47815
45.47785
45.46301
45.46301
45.47719
45.4768
45.47622
45.47635
45.47659
45.46209
45.49132
45.47663
45.47691
45.47716
45.49105
45.4755
45.47541
45.47655
45.47727
45.49148
45.47491
45.48924
45.49111
45.48436
45.47147
45.48377
45.45996
45.45779
45.66208
45.6896
45.67974
45.69054
45.69827
45.68001
45.70231
45.70911
45.68246
45.69086
45.68039
45.6694
45.68349
45.66772
45.69401
45.67453
45.6867
45.68805
45.69006
45.68201
45.70064
45.7004
45.68806
45.69135
45.68661
45.68153
45.69738
45.69053
45.69473
45.69547
45.68394
45.68738
45.68709
45.68494
45.69137
45.68834
45.69002
45.69137
45.68848
45.68723
45.68309
45.6884
45.69219
45.69023
45.68782
45.69083
45.6851
45.68602
45.68777
45.69055
45.68846
45.69015
45.69025
45.69089
45.67919
45.69234
45.68196
45.68706
45.68301
45.68821
45.68868
45.68761
45.69049
45.69134
45.68987
45.69888
45.68739
45.69047
45.70077
45.6974
45.68939
45.68373
45.68289
45.6795
45.68067
45.67847
45.69031
45.69883
45.67403
45.68534
45.70329
45.69008
45.70022
45.70167
45.69659
45.68885
45.68357
45.68548
45.69737
45.68596
45.68796
45.6974
45.68058
45.68188
45.69395
45.68403
45.67738
45.68039
45.67529
45.66555
45.68741
45.68021
45.68916
45.67997
45.69837
45.68499
45.70251
45.69543
45.67963
45.68672
45.66745
45.67264
45.67154
45.67912
45.67518
45.66651
45.70364
45.69293
45.68482
45.69391
45.69594
45.69004
45.69546
45.70193
45.67896
45.68624
45.67764
45.67645
45.68634
45.68471
45.68287
45.68094
45.69102
45.68694
45.6995
45.69519
45.69077
45.69813
45.68188
45.68477
45.69152
45.68454
45.69019
45.68985
45.68788
45.69343
45.68925
45.68392
45.68708
45.68463
45.68998
45.69252
45.69023
45.6915
45.68817
45.6906
45.68244
45.68848
45.68389
45.67945
45.68741
45.68673
45.69433
45.69034
45.69844
45.69856
45.68393
45.68791
45.69419
45.68525
45.6984
45.68977
45.69178
45.69141
45.68002
45.68656
45.67395
45.68512
45.66787
45.66316
45.67968
45.67047
45.69519
45.69272
45.67025
45.6876
45.67453
45.65774
45.6854
45.67162
45.66836
45.66939
45.65812
45.68274
45.66348
45.47655
45.46767
45.53047
45.46859
45.47405
45.47187
45.26417
45.62756
45.33997
45.47591
45.47231
45.49806
45.48339
45.67275
45.4196
45.41624
45.48285
45.48286
45.47273
45.3689
45.48382
45.46027
45.47427
45.47582
45.50319
45.49553
45.6449
45.46887
45.46861
45.46972
45.52308
45.48238
45.46953
45.47103
45.52592
45.68951
45.4958
45.44828
45.48015
45.47523
45.47718
45.48261
45.47695
45.47676
45.46742
45.4993
45.49315
45.46142
45.46836
45.47749
45.45172
45.46144
45.46847
45.50471
45.48365
45.46706
45.49788
45.49212
45.45422
45.46295
45.46339
45.48333
45.48427
45.48324
45.49196
45.46194
45.4906
45.47534
45.49046
45.46172
45.46215
45.47676
45.49146
45.49154
45.46213
45.46223
45.47728
45.47756
45.46273
45.46207
45.49149
45.49163
45.47684
45.47669
45.46163
45.47597
45.46129
45.49133
45.46229
45.46258
45.47804
45.49323
45.47837
45.47778
45.47764
45.46287
45.4628
45.46213
45.47636
45.46129
45.47653
45.46214
45.49147
45.47655
45.49162
45.47713
45.47695
45.461
45.47519
45.47597
45.47711
45.47728
45.47585
45.47407
45.47532
45.47483
45.47558
45.46913
45.46478
45.46201
45.57564
45.47235
45.46659
45.47048
45.47109
45.46697
45.68481
45.53732
45.46225
45.47038
45.47732
45.4811
45.47861
45.48038
45.48279
45.46836
45.46689
45.48014
45.46592
45.49682
45.4829
45.48255
45.4674
45.49692
45.4531
45.46744
45.46671
45.48157
45.46773
45.46844
45.46881
45.46881
45.46913
45.46973
45.48478
45.46952
45.46853
45.45337
45.48221
45.45199
45.46639
45.46692
45.4823
45.46775
45.48253
45.49708
45.45285
45.46846
45.46888
45.46844
45.46793
45.46785
45.45637
45.46138
45.44786
45.69136
45.45951
45.48193
45.48152
45.47947
45.47896
45.49631
45.46842
45.46777
45.48074
45.49486
45.48117
45.48268
45.468
45.48228
45.48205
45.48228
45.4676
45.48187
45.48126
45.49665
45.46795
45.45414
45.45406
45.46887
45.4692
45.4699
45.48442
45.48366
45.45355
45.46776
45.48186
45.46638
45.46657
45.46731
45.46759
45.46776
45.49716
45.4821
45.46792
45.45404
45.46861
45.46818
45.45318
45.45303
45.48231
45.49711
45.46767
45.46781
45.46689
45.49537
45.49494
45.48127
45.45302
45.48324
45.45422
45.49048
45.53257
45.60635
45.48221
45.4823
45.46316
45.4693
45.46236
45.48239
45.48238
45.46571
45.45379
45.48532
45.46795
45.48255
45.48437
45.46652
45.46768
45.46746
45.48101
45.48038
45.45447
45.49539
45.46707
45.48281
45.57352
45.65647
45.60232
45.53228
45.4602
45.48456
45.48538
45.43168
45.29253
45.37177
45.57633
45.47388
45.48069
45.46886
45.4807
45.48676
45.47868
45.47499
45.48475
45.47542
45.46118
45.48645
45.48625
45.47174
45.48363
45.47096
45.48201
45.4692
45.46749
45.48214
45.47903
45.47016
45.46733
45.49506
45.4801
45.48233
45.49211
45.48339
45.48043
45.49629
45.49426
45.47044
45.48142
45.48329
45.46854
45.49496
45.49306
45.49496
45.49199
45.48301
45.49303
45.46988
45.46813
45.49574
45.481
45.46987
45.48089
45.48303
45.46823
45.49593
45.49396
45.48308
45.48114
45.4963
45.48129
45.48367
45.49438
45.47103
45.48177
45.45924
45.47003
45.45934
45.45825
45.48415
45.47015
45.47102
45.48183
45.47104
45.46895
45.4698
45.48071
45.48358
45.48057
45.4822
45.48036
45.48347
45.48026
45.48253
45.48056
45.47052
45.48038
45.48356
45.46868
45.48357
45.49441
45.47067
45.48162
45.46919
45.46747
45.49487
45.47904
45.48291
45.49291
45.46885
45.48001
45.48158
45.47882
45.48147
45.49156
45.48136
45.4787
45.49545
45.49252
45.49457
45.49275
45.48172
45.47878
45.4692
45.46607
45.48349
45.46747
45.48261
45.49332
45.47082
45.46776
45.48386
45.4817
45.45802
45.46881
45.45802
45.45596
45.47105
45.46881
45.458
45.46893
45.45801
45.45587
45.47105
45.46893
45.45781
45.46881
45.47065
45.46868
45.47058
45.48149
45.47036
45.46852
45.49612
45.48127
45.4691
45.4801
45.46943
45.46627
45.4692
45.46639
45.49611
45.4801
45.48349
45.49425
45.48359
45.4816
45.48359
45.49437
45.48369
45.48162
45.49649
45.49449
45.46957
45.48039
45.47085
45.46773
45.47085
45.48165
45.47063
45.46879
45.48359
45.48143
45.48348
45.48162
45.48245
45.49319
45.47067
45.48053
45.47067
45.4815
45.45677
45.4676
45.48375
45.46775
45.47081
45.48159
45.48395
45.46895
45.49668
45.49466
45.48334
45.48156
45.48306
45.46836
45.48311
45.48115
45.48187
45.48014
45.48164
45.47875
45.49583
45.47994
45.4832
45.49398
45.47068
45.48147
45.47086
45.48161
45.47093
45.48177
45.47103
45.4818
45.47196
45.47001
45.47081
45.46982
45.4579
45.45587
45.47063
45.45585
45.48347
45.48144
45.47034
45.46855
45.48349
45.4813
45.47066
45.48161
45.45752
45.46854
45.47055
45.46854
45.48338
45.48151
45.48348
45.49426
45.48369
45.48162
45.47074
45.48155
45.47085
45.46879
45.4578
45.4687
45.47096
45.4688
45.46981
45.48068
45.48357
45.48058
45.48349
45.49438
45.45742
45.46853
45.48213
45.46736
45.469
45.47904
45.47018
45.4672
45.48186
45.48015
45.49459
45.49171
45.46873
45.47875
45.46895
45.46598
45.45708
45.46705
45.48198
45.46716
45.48321
45.4929
45.48339
45.48147
45.46937
45.48025
45.45771
45.45467
45.47053
45.45572
45.46949
45.46741
45.45793
45.45463
45.48476
45.46893
45.48878
45.48486
45.49463
45.49101
45.47659
45.48671
45.4739
45.48586
45.48155
45.48388
45.48186
45.4896
45.46818
45.47293
45.46984
45.45966
45.45111
45.46522
45.48331
45.47771
45.66384
45.47151
45.46887
45.47106
45.4816
45.4885
45.45689
45.47112
45.46834
45.48471
45.47006
45.46827
45.4601
45.47884
45.67682
45.49124
45.47179
45.49293
45.48129
45.47867
45.48551
45.487
45.45828
45.47027
45.48144
45.47316
45.45427
45.48282
45.49397
45.46691
45.47322
45.48367
45.46045
45.4589
45.4749
45.47311
45.47353
45.47202
45.60086
45.47312
45.47256
45.48329
45.47996
45.47379
45.47352
45.48502
45.49421
45.46901
45.48415
45.47128
45.46925
45.48423
45.45848
45.4703
45.48531
45.49707
45.48184
45.4711
45.45612
45.48291
45.4717
45.47279
45.47324
45.47363
45.46021
45.47144
45.49698
45.48444
45.47162
45.48518
45.47083
45.45627
45.47066
45.48414
45.45982
45.47334
45.48787
45.47529
45.46231
45.47382
45.47343
45.46049
45.46124
45.48423
45.49631
45.47034
45.47132
45.47267
45.49688
45.45935
45.48444
45.47274
45.48372
45.46864
45.48098
45.45782
45.47324
45.48567
45.4801
45.47791
45.46906
45.47909
45.46892
45.45821
45.45308
45.45791
45.68987
45.51976
45.6986
45.67924
45.67233
45.66525
45.66279
45.67245
45.67258
45.67213
45.67924
45.67441
45.67256
45.66366
45.6822
45.68905
45.67744
45.684
45.68535
45.69068
45.68629
45.68667
45.68845
45.6889
45.69254
45.6888
45.68548
45.6899
45.68768
45.68916
45.6858
45.68538
45.68389
45.68367
45.67702
45.68735
45.69085
45.6758
45.68112
45.67065
45.68244
45.68853
45.6807
45.69324
45.68129
45.69195
45.68528
45.69751
45.68153
45.69201
45.69897
45.68817
45.69067
45.69472
45.68849
45.69598
45.68387
45.69436
45.68564
45.68899
45.68691
45.68261
45.67587
45.67281
45.67094
45.66524
45.69628
45.67497
45.64758
45.68828
45.65868
45.67986
45.63703
45.67299
45.66585
45.68982
45.66696
45.68962
45.69452
45.69796
45.69776
45.68515
45.69615
45.67127
45.67921
45.6661
45.666
45.67675
45.66727
45.66026
45.68017
45.65806
45.67615
45.67639
45.66659
45.68902
45.67701
45.6947
45.69523
45.68566
45.70789
45.68312
45.68096
45.69507
45.68782
45.68728
45.68201
45.69385
45.69449
45.68587
45.6848
45.68184
45.68034
45.67697
45.66828
45.69119
45.67855
45.696
45.68197
45.66735
45.65823
45.68393
45.66136
45.68612
45.6252
45.67572
45.68467
45.65937
45.68377
45.66689
45.68086
45.66876