/*--------------------------------*- C++ -*----------------------------------*\
  =========                 |
  \\      /  F ield         | OpenFOAM: The Open Source CFD Toolbox
   \\    /   O peration     | Website:  https://openfoam.org
    \\  /    A nd           | Version:  11
     \\/     M anipulation  |
\*---------------------------------------------------------------------------*/
FoamFile
{
    format      ascii;
    class       volScalarField;
    location    "0";
    object      yPlus;
}
// * * * * * * * * * * * * * * * * * * * * * * * * * * * * * * * * * * * * * //

dimensions      [0 0 0 0 0 0 0];

internalField   uniform 0;

boundaryField
{
    inlet
    {
        type            calculated;
        value           uniform 0;
    }
    wall
    {
        type            calculated;
        value           nonuniform List<scalar> 
18790
(
45.65842
45.58712
45.36946
45.34549
45.35649
45.35793
45.34659
45.34529
45.35734
45.36956
45.33305
45.34536
45.34606
45.35736
45.35571
45.368
45.35827
45.3338
45.32175
45.34523
45.36871
45.3338
45.34528
45.33399
45.36862
45.36863
45.32174
45.34606
45.34608
45.34434
45.3557
45.35749
45.35824
45.33312
45.34432
45.38007
45.38104
45.33309
45.33403
45.36949
45.35698
45.39333
45.27329
45.38189
45.2732
45.53825
45.16188
45.39392
45.39325
45.2733
45.40451
45.16188
45.51561
45.26141
45.38261
45.4045
45.27338
45.51564
45.13922
45.51569
45.28416
45.52723
45.38243
45.26464
45.50178
45.28026
45.38396
45.38396
45.3717
45.35612
45.25728
45.41055
45.36336
45.3944
45.4195
45.35141
45.36473
45.33889
45.36225
45.3823
45.34192
45.33302
45.38763
45.2925
45.32425
45.05051
45.19216
45.1855
45.19135
45.21218
45.23178
45.3932
45.31759
45.29168
45.34042
45.37073
45.32285
45.34962
45.36608
45.3648
45.33981
45.35621
45.30953
45.36398
45.28237
45.31313
45.22546
45.00759
45.65842
45.63252
45.43689
45.43087
45.40758
45.41535
45.39013
45.3969
45.39963
45.39982
45.39811
45.40245
45.4085
45.40498
45.39399
45.39337
45.3945
45.38225
45.39351
45.39532
45.3693
45.38243
45.38151
45.38282
45.36929
45.38265
45.39491
45.38398
45.40699
45.40937
45.39363
45.39593
45.39474
45.38379
45.38132
45.38378
45.36927
45.37042
45.37159
45.37603
45.39263
45.39066
45.39335
45.40367
45.39335
45.39221
45.39335
45.39221
45.36885
45.37991
45.36801
45.35565
45.37944
45.36701
45.39079
45.37822
45.40307
45.38964
45.40392
45.40181
45.38113
45.37925
45.39332
45.38009
45.39244
45.4034
45.36815
45.39038
45.36815
45.3783
45.38035
45.3906
45.39249
45.39145
45.4038
45.39123
45.4038
45.37918
45.39258
45.37918
45.38106
45.38015
45.369
45.38005
45.369
45.38005
45.35678
45.36777
45.36906
45.35569
45.38115
45.36787
45.39236
45.36789
45.40378
45.37922
45.4029
45.39044
45.37962
45.38971
45.36815
45.37837
45.39263
45.39066
45.39333
45.40365
45.3925
45.39113
45.3925
45.39052
45.39246
45.40283
45.3916
45.40275
45.39081
45.40181
45.39079
45.38972
45.4153
45.40198
45.40479
45.41502
45.4047
45.40348
45.4047
45.4149
45.39242
45.41489
45.36901
45.39145
45.3568
45.36772
45.37938
45.36689
45.40307
45.38966
45.42736
45.41412
45.42734
45.42621
45.41612
45.42619
45.38106
45.40364
45.369
45.37999
45.369
45.37999
45.36905
45.36771
45.3925
45.37902
45.40371
45.39046
45.42732
45.41409
45.36758
45.31676
45.53762
45.38041
45.4039
45.50112
45.2718
45.36797
45.39467
45.36799
45.39325
45.36687
45.39244
45.36908
45.2832
45.37921
45.41726
45.39066
45.54928
45.52349
45.42726
45.40087
45.42645
45.4031
45.28324
45.39074
45.39465
45.36798
45.39324
45.36685
45.40458
45.25735
45.40382
45.39173
45.2832
45.39066
45.40603
45.39066
45.41581
45.3895
45.42645
45.40309
45.30582
45.40199
45.29461
45.40199
45.39465
45.37945
45.39325
45.36685
45.39243
45.36908
45.2718
45.36797
45.39465
45.36798
45.51526
45.48948
45.40447
45.36685
45.41506
45.38046
45.29439
45.37928
45.41736
45.39051
45.51517
45.50095
45.51512
45.48951
45.39252
45.48952
45.27176
45.36774
45.40576
45.37904
45.52644
45.51192
45.41509
45.51174
45.30576
45.40118
45.42839
45.40127
45.53762
45.51179
45.5266
45.50067
45.39262
45.49011
45.27243
45.36997
45.27375
45.2497
45.51663
45.37581
45.4055
45.38448
45.41413
45.39159
45.32681
45.37333
45.25216
44.9618
45.25574
45.65668
45.67891
45.66122
45.67446
45.65235
45.66395
45.66458
45.65579
45.67029
45.66315
45.67011
45.66324
45.67396
45.68828
45.6781
45.68296
45.66392
45.67596
45.65941
45.66705
45.66788
45.65528
45.66364
45.66461
45.66914
45.66195
45.67379
45.65812
45.66592
45.67315
45.67973
45.66678
45.67476
45.00651
45.43123
45.33684
45.34443
45.35719
45.34434
45.33317
45.35867
45.36957
45.35848
45.34874
45.36964
45.35742
45.34432
45.35574
45.35752
45.34609
45.32178
45.32178
45.38092
45.35753
45.34534
45.32176
45.34609
45.39225
45.33319
45.33403
45.35827
45.35739
45.35573
45.35667
45.35827
45.34517
45.33315
45.38022
45.38007
45.34517
45.32178
45.34609
45.36873
45.52693
45.13913
45.51564
45.26144
45.41662
45.4159
45.27335
45.51567
45.15048
45.52685
45.28403
45.27332
45.39328
45.262
45.51551
45.16178
45.51565
45.2712
45.26193
45.27133
45.40689
45.51612
45.27401
45.3766
45.26862
45.40123
45.42005
45.64654
45.47093
45.65652
45.67289
45.64855
45.6566
45.67153
45.67336
45.69213
45.65784
45.6709
45.66736
45.6582
45.6646
45.67055
45.66576
45.67015
45.66589
45.66489
45.65911
45.67193
45.68129
45.66938
45.67339
45.66693
45.6642
45.66552
45.6589
45.66628
45.663
45.68055
45.6572
45.66117
45.66098
45.65926
45.65773
45.65716
45.66642
45.67084
45.65969
45.66512
45.67487
45.66993
45.66463
45.67665
45.65922
45.68098
45.68063
45.63361
45.35354
45.35108
45.35196
45.35063
45.35118
45.36274
45.36151
45.37483
45.35626
45.3719
45.34819
45.35953
45.35879
45.35977
45.34909
45.32485
45.32485
45.36062
45.34834
45.34835
45.34833
45.33696
45.38324
45.34819
45.32483
45.34925
45.36049
45.3588
45.34757
45.34925
45.36027
45.3475
45.37112
45.371
45.37177
45.3363
45.33701
45.36047
45.39821
45.26321
45.40951
45.38585
45.28655
45.54148
45.16502
45.40953
45.28584
45.40951
45.39717
45.165
45.53017
45.26314
45.38684
45.27448
45.39812
45.40764
45.14257
45.3969
45.39851
45.52045
45.40187
45.27464
45.40933
45.40014
45.66962
45.65934
45.66964
45.66582
45.66136
45.66854
45.66835
45.65259
45.66963
45.66922
45.68176
45.67167
45.68366
45.66712
45.67869
45.6594
45.66369
45.67107
45.66698
45.66632
45.66419
45.66036
45.67138
45.67523
45.66679
45.67089
45.66615
45.65995
45.6864
45.34746
45.35194
45.35214
45.35084
45.34983
45.36249
45.37362
45.35043
45.35955
45.36048
45.37191
45.3588
45.35881
45.3493
45.33703
45.32485
45.32485
45.36041
45.33703
45.37185
45.32481
45.34818
45.38409
45.32483
45.33696
45.34906
45.35953
45.3588
45.34828
45.36133
45.34748
45.3475
45.38306
45.38328
45.34752
45.32484
45.34932
45.28703
45.51885
45.15358
45.51894
45.26315
45.42083
45.29713
45.28665
45.53019
45.165
45.5303
45.28566
45.40951
45.39731
45.26398
45.51883
45.1537
45.53019
45.15383
45.39849
45.27737
45.52021
45.50978
45.28532
45.40216
45.29748
45.66577
45.66452
45.67033
45.66523
45.67132
45.67043
45.67964
45.6728
45.66714
45.67605
45.67266
45.67032
45.66565
45.67207
45.67431
45.66866
45.67656
45.6831
45.65037
45.66247
45.67152
45.67508
45.66514
45.65805
45.66388
45.66246
45.66709
45.58961
45.6594
45.66094
45.34925
45.33884
45.34335
45.36452
45.36382
45.35074
45.37417
45.36839
45.36542
45.35464
45.36527
45.36539
45.34359
45.34415
45.32222
45.33285
45.33367
45.3329
45.36636
45.36621
45.33265
45.35475
45.344
45.34425
45.3557
45.36625
45.36545
45.35493
45.34422
45.3545
45.35408
45.36557
45.36555
45.37685
45.33289
45.33371
45.34432
45.27664
45.38955
45.41279
45.38958
45.28695
45.40022
45.29773
45.29789
45.41058
45.40215
45.38968
45.29766
45.41087
45.38936
45.27663
45.38948
45.40221
45.29615
45.27715
45.28758
45.49853
45.50044
45.52061
45.20937
45.36287
45.29016
45.6661
45.35768
44.94154
45.28882
45.37251
45.45012
45.34227
45.64359
45.34105
45.33892
45.40555
45.40116
45.35549
45.41314
45.35373
45.35152
45.41524
45.35507
45.33601
45.41847
45.38102
45.32105
45.2683
45.43385
45.31985
45.29015
45.25666
45.35795
45.3672
45.30596
45.31237
45.40059
45.36044
45.3324
45.37921
45.37969
45.32707
45.33929
45.27419
45.29604
45.22502
45.23281
45.45449
45.42232
45.4363
45.39705
45.42302
45.39818
45.39749
45.41587
45.41232
45.39827
45.40642
45.38754
45.39881
45.37181
45.38034
45.3876
45.37815
45.38724
45.3917
45.38795
45.3805
45.39938
45.40388
45.38913
45.39225
45.41311
45.405
45.40035
45.41632
45.37721
45.39194
45.37709
45.38137
45.3759
45.38011
45.38114
45.37999
45.39924
45.38633
45.39999
45.39882
45.38923
45.38814
45.38917
45.38814
45.37753
45.38809
45.36614
45.37653
45.3662
45.3766
45.37674
45.37659
45.39901
45.3988
45.39895
45.41012
45.37679
45.39842
45.37758
45.3763
45.39955
45.38777
45.41041
45.41016
45.38744
45.39852
45.41061
45.39873
45.39983
45.41001
45.38911
45.3996
45.3662
45.38803
45.36618
45.37661
45.37784
45.37668
45.38921
45.38821
45.38921
45.38822
45.37763
45.38822
45.36625
45.37672
45.36631
45.37672
45.37793
45.38843
45.36631
45.38823
45.37688
45.37672
45.38774
45.38748
45.38767
45.38749
45.39918
45.38736
45.39999
45.39882
45.3881
45.38809
45.38758
45.38729
45.39927
45.38736
45.41073
45.39896
45.41072
45.4106
45.39931
45.41061
45.39927
45.39897
45.40014
45.39903
45.39988
45.38832
45.41061
45.3989
45.41052
45.39883
45.3998
45.39865
45.37748
45.38792
45.37673
45.37647
45.38747
45.38717
45.39911
45.3871
45.4105
45.39861
45.41044
45.39855
45.39985
45.39855
45.38898
45.38782
45.38897
45.38777
45.37739
45.38777
45.37657
45.37628
45.3874
45.38696
45.39892
45.38696
45.26079
45.35182
45.39071
45.32013
45.50461
45.54917
45.38872
45.43295
45.38878
45.31861
45.38871
45.43522
45.39083
45.4348
45.39931
45.43295
45.41011
45.32933
45.41006
45.32928
45.39922
45.43516
45.41215
45.43453
45.39948
45.44352
45.38871
45.31856
45.27293
45.31862
45.28542
45.3203
45.41221
45.44546
45.41014
45.44363
45.41015
45.3293
45.39923
45.4352
45.41219
45.43459
45.51521
45.54928
45.41014
45.43277
45.39949
45.32925
45.38859
45.43505
45.39077
45.43469
45.38872
45.43289
45.38872
45.31862
45.38866
45.31856
45.38864
45.43511
45.39076
45.43476
45.50448
45.54912
45.39913
45.43279
45.39928
45.32911
45.38831
45.31833
45.50393
45.43454
45.38805
45.43209
45.39841
45.31721
45.40863
45.32712
45.4081
45.3265
45.4074
45.32576
45.52309
45.44157
45.39712
45.43946
45.38753
45.31568
45.39043
45.31888
45.51199
45.44157
45.39594
45.55815
45.29397
45.33641
45.41708
45.46453
45.41297
45.46318
45.31182
45.44041
45.66594
45.66293
45.66287
45.66177
45.66149
45.66358
45.66578
45.6658
45.61065
45.66836
45.652
45.63211
45.66122
45.66657
45.67012
45.65068
45.66551
45.6673
45.65631
45.64122
45.65131
45.64894
45.6654
45.67086
45.66803
45.67809
45.68638
45.6691
45.68383
45.657
45.67667
45.68603
45.67319
45.66811
45.67959
45.66128
45.64048
45.66187
45.66739
45.66316
45.66754
45.66043
45.66463
45.66097
45.67049
45.65156
45.64885
45.66921
45.66359
45.6737
45.66832
45.66223
45.65797
45.64349
45.65334
45.65639
45.64202
45.66143
45.61207
45.34041
45.34865
45.65121
45.60005
45.65023
45.33096
45.32878
45.23704
45.3539
45.34714
45.35519
45.35162
45.35196
45.37383
45.36271
45.35468
45.34423
45.37706
45.35413
45.36566
45.34535
45.34454
45.34454
45.33386
45.33371
45.34454
45.37704
45.34433
45.35484
45.36636
45.32222
45.34436
45.35573
45.36549
45.35408
45.33364
45.3672
45.35496
45.35427
45.36558
45.37727
45.36577
45.3331
45.35617
45.20762
45.49381
45.28727
45.40062
45.37886
45.29796
45.41078
45.1722
45.52571
45.29792
45.40066
45.40003
45.29802
45.51516
45.16159
45.38989
45.27686
45.41118
45.16208
45.28862
45.39528
45.5107
45.50243
45.41707
45.34721
45.363
45.61989
45.34723
45.49288
45.11782
45.50312
45.16623
45.64656
45.34814
45.65762
45.65719
45.35724
45.37131
45.36009
45.35022
45.34936
45.34167
45.60766
45.63638
45.64002
45.66052
45.66967
45.65857
45.64055
45.66233
45.66028
45.67449
45.6644
45.66661
45.63525
45.67416
45.66532
45.66055
45.33898
45.66782
45.66206
45.35143
45.61783
45.66229
45.66585
45.63104
45.63477
45.34799
45.36988
45.34719
45.37003
45.33773
45.34829
45.3376
45.33774
45.32689
45.34836
45.37006
45.35936
45.34794
45.34769
45.32592
45.35944
45.37081
45.36986
45.3584
45.34881
45.35945
45.34815
45.34734
45.35873
45.37023
45.37023
45.32605
45.34898
45.26878
45.38449
45.39464
45.40343
45.38435
45.28956
45.39485
45.27921
45.40571
45.40509
45.39273
45.39498
45.28961
45.40564
45.27909
45.27952
45.39464
45.40351
45.16579
45.28037
45.28571
45.50653
45.49866
45.5255
45.25176
45.30012
45.64669
45.66113
45.6566
45.68056
45.66586
45.65873
45.66435
45.66805
45.6726
45.67827
45.66564
45.65306
45.64306
45.64591
45.58863
45.67475
45.36441
45.6578
45.34706
45.29487
45.41225
45.32196
45.50429
45.50783
45.50441
45.29244
45.27094
45.29005
45.39448
45.39494
45.16548
45.50827
45.28987
45.40489
45.27939
45.39445
45.51886
45.16525
45.40487
45.27928
45.38352
45.27924
45.40494
45.49763
45.15478
45.35953
45.33773
45.34799
45.38148
45.35876
45.3472
45.3477
45.35911
45.33689
45.35844
45.3586
45.6565
45.6555
45.66436
45.35935
45.35929
45.33717
45.34772
45.34772
45.3476
45.36998
45.35948
45.32597
45.32663
45.34794
45.33746
45.34857
45.35846
45.35853
45.36972
45.33711
45.33616
45.3589
45.37091
45.33707
45.34908
45.6513
45.66111
45.64151
45.65739
45.65508
45.66914
45.66524
45.34493
45.3447
45.34036
45.64934
45.61779
45.65187
45.3539
45.34345
45.35293
45.3609
45.3368
45.33743
45.34691
45.35718
45.34699
45.34778
45.34809
45.35713
45.33864
45.32806
45.35783
45.35726
45.34674
45.34777
45.337
45.33837
45.35697
45.35722
45.35712
45.34753
45.35698
45.34772
45.3473
45.35736
45.35713
45.348
45.34839
45.35827
45.23982
45.43784
45.44684
45.24802
45.4374
45.2388
45.44677
45.23876
45.43776
45.43779
45.23874
45.44676
45.24804
45.44685
45.24822
45.34881
45.43759
45.24821
45.3398
45.25339
45.45011
45.45738
45.3464
45.31735
45.63411
45.2784
45.62841
45.34042
45.35995
45.39287
45.42045
45.35172
45.38028
45.37687
45.34972
45.3069
45.34204
45.37002
45.24103
45.39218
45.3856
45.3847
45.31538
45.37848
45.43256
45.34278
45.32108
45.47141
45.45916
45.38911
45.42516
45.35704
45.35422
45.34999
45.35965
45.31708
45.33721
45.30046
45.34422
45.56413
45.39785
45.4068
45.40965
45.4064
45.4002
45.40069
45.40365
45.38924
45.3916
45.37807
45.3856
45.37091
45.36994
45.3843
45.37852
45.38552
45.39002
45.38576
45.38091
45.39684
45.39221
45.38583
45.38197
45.40697
45.39221
45.38437
45.39093
45.3845
45.37897
45.37403
45.37869
45.37388
45.3684
45.37564
45.3692
45.38205
45.37674
45.39166
45.39144
45.39166
45.40119
45.38196
45.39167
45.37167
45.37165
45.39158
45.38128
45.38201
45.39163
45.39148
45.38104
45.40211
45.39153
45.39174
45.39192
45.39125
45.39119
45.38167
45.39141
45.39132
45.38082
45.38162
45.38116
45.39213
45.3717
45.4015
45.40145
45.3931
45.39245
45.40166
45.40249
45.38197
45.39166
45.38225
45.38199
45.38215
45.38254
45.38216
45.3821
45.37276
45.37266
45.39263
45.38324
45.39172
45.40214
45.39261
45.39178
45.38281
45.38327
45.38212
45.37291
45.37183
45.37178
45.39265
45.38232
45.38227
45.39267
45.37267
45.37299
45.38298
45.37378
45.38217
45.3829
45.37177
45.37206
45.39173
45.38137
45.39241
45.39179
45.4035
45.39322
45.3933
45.39422
45.39281
45.39351
45.39181
45.40223
45.37276
45.38235
45.37177
45.3625
45.39151
45.38127
45.38203
45.39151
45.39142
45.39172
45.38184
45.39152
45.38183
45.38185
45.38182
45.38188
45.38182
45.38188
45.37152
45.37151
45.38174
45.37171
45.39125
45.39119
45.37137
45.38104
45.37137
45.36122
45.39216
45.38193
45.38167
45.39233
45.37076
45.41189
45.4334
45.40131
45.43218
45.40023
45.42182
45.39306
45.32103
45.3823
45.43358
45.39174
45.43135
45.39942
45.32856
45.29798
45.33062
45.29981
45.32093
45.39197
45.41451
45.3822
45.52469
45.4837
45.32836
45.39934
45.32092
45.29027
45.32193
45.38322
45.43359
45.39266
45.43135
45.39941
45.43141
45.4016
45.33153
45.40233
45.41551
45.39381
45.4122
45.37179
45.41242
45.27891
45.4122
45.37305
45.32091
45.38232
45.43338
45.39166
45.52461
45.49329
45.3189
45.38025
45.32102
45.28071
45.32093
45.3823
45.42389
45.38221
45.52469
45.48373
45.5246
45.48364
45.32835
45.38968
45.21775
45.18659
45.33038
45.28988
45.43289
45.40091
45.43055
45.50234
45.31868
45.3902
45.31712
45.37841
45.32593
45.38628
45.32425
45.39446
45.32366
45.28917
45.32177
45.28917
45.31655
45.28291
45.32223
45.38
45.43516
45.38971
45.53719
45.49912
45.36069
45.41654
45.37889
45.25923
45.45846
45.36145
45.41672
45.39929
45.66933
45.63793
45.59089
45.66327
45.33516
45.64138
45.62443
45.66114
45.65337
45.34424
45.34143
45.64706
45.60613
45.64014
45.65509
45.60494
45.65765
45.64749
45.63526
45.65843
45.64994
45.58736
45.60435
45.36704
45.64039
45.35157
45.35253
45.33467
45.34053
45.64103
45.63691
45.66407
45.34648
45.35173
45.6522
45.66166
45.64223
45.5893
45.32707
45.34131
45.33801
45.33428
45.66428
45.63184
45.64823
45.66615
45.57808
45.65433
45.32243
45.33885
45.64959
45.66614
45.38847
45.33543
45.45873
45.35141
45.44946
45.31405
45.44362
45.41834
45.35582
45.41653
45.34876
45.30957
45.23932
45.29539
45.33623
45.29399
45.44719
45.39436
45.2472
45.30343
45.34672
45.30427
45.3393
45.39414
45.34568
45.30319
45.34857
45.40346
45.33719
45.29517
45.44611
45.40261
45.34865
45.39423
45.33761
45.29504
45.33827
45.40248
45.33717
45.29461
45.33932
45.39421
45.3455
45.30343
45.44718
45.40357
45.33949
45.39421
45.27905
45.28667
45.35805
45.36483
45.33809
45.35392
45.36724
45.36374
45.3663
45.35263
45.3464
45.35284
45.3464
45.35284
45.33706
45.34348
45.35629
45.36262
45.35788
45.35423
45.35601
45.35258
45.34767
45.34423
45.3671
45.36357
45.36614
45.35249
45.33799
45.33511
45.33777
45.34342
45.34603
45.3526
45.36698
45.35336
45.35721
45.35379
45.35652
45.35356
45.32893
45.33457
45.34731
45.35353
45.34718
45.36277
45.35739
45.36374
45.33795
45.34408
45.36707
45.3535
45.34632
45.35272
45.36596
45.3524
45.37164
45.39168
45.30582
45.63311
45.66118
45.34063
45.34275
45.34202
45.3515
45.64156
45.35103
45.38659
45.35166
45.34246
45.36317
45.33327
45.35339
45.34329
45.35242
45.34416
45.34261
45.35386
45.36318
45.33212
45.34398
45.3433
45.35325
45.35395
45.36216
45.36313
45.35227
45.34216
45.3524
45.35241
45.36231
45.35338
45.34415
45.35419
45.3452
45.30489
45.40306
45.40227
45.30381
45.39388
45.29371
45.40308
45.30393
45.39258
45.39409
45.29447
45.40213
45.29468
45.4031
45.30304
45.40305
45.38372
45.30402
45.40476
45.31228
45.40319
45.42166
45.31462
45.59981
45.32783
45.06319
45.35083
45.68076
45.62523
45.35582
45.66001
45.64778
45.34785
45.34739
45.65016
45.64966
45.61517
45.6485
45.58899
45.61573
45.60915
45.65898
45.63918
45.654
45.34128
45.65531
45.65153
45.33644
45.6518
45.64137
45.65172
45.33939
45.35276
45.62328
45.29707
45.62335
45.62886
45.33932
45.65567
45.62434
45.55266
45.35226
45.34713
45.34855
45.34881
45.34966
45.3404
45.6633
45.64339
45.62283
45.58463
45.61414
45.45093
45.62567
45.4427
45.34821
45.23679
45.57332
45.62763
45.63935
45.349
45.41526
45.24941
45.43704
45.20993
45.34265
45.34363
45.30271
45.61941
45.28873
45.36011
45.34987
45.34228
45.3888
45.56061
45.32039
45.60123
45.55668
45.38847
45.39984
45.37282
45.36646
45.32788
45.30778
45.36024
45.27235
45.29785
45.35487
45.37953
45.29264
45.3322
45.31543
45.24563
45.35156
45.29394
45.42924
45.32745
45.4261
45.40596
45.32187
45.32812
45.35056
45.32653
45.34197
45.37689
45.37339
45.35465
45.41331
45.37349
45.32278
45.4145
45.40908
45.39258
45.39648
45.37211
45.37942
45.36564
45.36902
45.35995
45.36229
45.36916
45.36279
45.37925
45.37508
45.37124
45.37565
45.37262
45.36667
45.3744
45.37819
45.37264
45.36872
45.37174
45.37614
45.37876
45.37506
45.36931
45.38289
45.36038
45.36507
45.36243
45.36501
45.3678
45.36702
45.37844
45.37017
45.38627
45.37707
45.37868
45.37707
45.37213
45.37909
45.37028
45.37062
45.3787
45.37703
45.3864
45.38554
45.37055
45.38496
45.37092
45.36931
45.37856
45.36928
45.37879
45.37694
45.36894
45.36804
45.36219
45.36748
45.36275
45.36103
45.37853
45.36929
45.37997
45.37699
45.37972
45.37057
45.38713
45.38553
45.37128
45.37767
45.3717
45.37007
45.37084
45.36939
45.36486
45.37063
45.3739
45.36486
45.3959
45.38806
45.38028
45.38664
45.37237
45.37903
45.37228
45.37884
45.36361
45.37895
45.37269
45.36362
45.38034
45.37954
45.37299
45.37856
45.36514
45.37066
45.37375
45.37183
45.37178
45.37975
45.38656
45.38561
45.37985
45.39451
45.38169
45.38036
45.37325
45.3802
45.38082
45.37071
45.38744
45.3784
45.37146
45.37713
45.3567
45.36364
45.38659
45.37854
45.37917
45.39323
45.37938
45.36999
45.37874
45.37699
45.37091
45.36931
45.37878
45.377
45.37091
45.37722
45.36252
45.36931
45.3706
45.36875
45.37854
45.37721
45.37038
45.37696
45.35438
45.36102
45.37041
45.35977
45.38725
45.38421
45.38565
45.36664
45.41111
45.37547
45.41298
45.46169
45.32283
45.37845
45.39569
45.369
45.40328
45.369
45.41175
45.46169
45.24521
45.37721
45.32922
45.29429
45.4035
45.37669
45.39566
45.36902
45.40206
45.36779
45.41173
45.46048
45.32824
45.38369
45.3969
45.37571
45.40329
45.36903
45.32608
45.37425
45.32922
45.29295
45.41235
45.37668
45.40599
45.37793
45.39755
45.45525
45.22977
45.36956
45.31378
45.28663
45.40353
45.3767
45.40206
45.3757
45.40349
45.37547
45.31952
45.37682
45.32165
45.30225
45.39566
45.37693
45.40231
45.37548
45.39567
45.3757
45.39567
45.36901
45.31823
45.36779
45.23657
45.29163
45.32026
45.28397
45.40986
45.37429
45.40993
45.37421
45.40123
45.37417
45.39113
45.36502
45.3954
45.36106
45.40219
45.36604
45.32383
45.37104
45.24075
45.29383
45.31945
45.29377
45.47807
45.45251
45.3981
45.44797
45.41857
45.38353
45.36241
45.40683
45.33063
45.37416
45.27296
45.36628
45.34689
45.45244
45.34699
45.59202
45.66514
45.63377
45.67512
45.57713
45.60272
45.59909
45.53679
45.51472
45.63618
45.67842
45.36325
45.34123
45.35454
45.34959
45.34703
45.34722
45.36084
45.35458
45.28063
45.22818
45.33663
45.33766
45.34498
45.34948
45.62952
45.61187
45.58055
45.65527
45.63398
45.32957
45.33572
45.34612
45.33959
45.41728
45.40988
45.50671
45.55857
45.60079
45.25989
45.34827
45.41476
45.33544
45.40634
45.32472
45.38797
45.32348
45.40264
45.31612
45.39671
45.32231
45.39647
45.4039
45.31476
45.39771
45.32359
45.40265
45.31639
45.4052
45.3224
45.32347
45.40519
45.31888
45.35696
45.35571
45.34795
45.35443
45.35572
45.35446
45.34654
45.35456
45.34859
45.34704
45.34578
45.34803
45.34805
45.35457
45.33879
45.35581
45.34832
45.34044
45.35696
45.35571
45.34695
45.35573
45.33948
45.34832
45.34673
45.54825
45.34162
45.34042
45.34245
45.33981
45.30803
45.2579
45.268
45.23069
45.3338
45.31009
45.33259
45.38461
45.41001
45.38062
45.32355
45.37311
45.31486
45.29235
45.38926
45.43562
45.32232
45.29106
45.4027
45.44916
45.31629
45.28351
45.39394
45.44162
45.32373
45.29081
45.39684
45.44316
45.39519
45.44291
45.31638
45.28375
45.39649
45.43685
45.32245
45.29081
45.39655
45.45041
45.32375
45.29079
45.39532
45.44416
45.40395
45.36963
45.3236
45.29107
45.39781
45.45174
45.35707
45.32496
45.3483
45.34845
45.35581
45.35468
45.34654
45.34685
45.35452
45.35469
45.34708
45.3484
45.34681
45.35465
45.35335
45.35332
45.35465
45.35329
45.35338
45.35201
45.34845
45.35458
45.35587
45.3546
45.34534
45.34549
45.34866
45.34
45.34667
45.34545
45.3456
45.35201
45.33917
45.33794
45.34841
45.34706
45.34732
45.34736
45.33906
45.33204
45.35329
45.35468
45.35451
45.35595
45.35453
45.34611
45.3471
45.35467
45.34789
45.34679
45.3546
45.34729
45.35337
45.35337
45.65656
45.35454
45.34724
45.33591
45.32327
45.63631
45.31974
45.29561
45.5069
45.35325
45.34701
45.34602
45.35335
45.34582
45.35331
45.34734
45.34707
45.34726
45.34595
45.3441
45.35196
45.35195
45.34541
45.346
45.35461
45.35334
45.35461
45.34734
45.35592
45.36574
45.36962
45.37178
45.36293
45.37085
45.36444
45.36829
45.36443
45.36333
45.36315
45.45034
45.3696
45.36187
45.36229
45.36296
45.52314
45.6269
45.30659
45.26842
45.36831
45.6242
45.51587
45.36445
45.36103
45.62177
45.34816
45.29229
45.64992
45.35165
45.45443
45.34715
45.54699
45.55637
45.63299
45.58536
45.35455
45.35539
45.34465
45.67677
45.30016
45.35196
45.32308
45.64022
45.62493
45.63255
45.34995
45.34446
45.37777
45.58101
45.34898
45.33738
45.33833
45.60801
45.52121
45.34953
45.3186
45.39895
45.35194
45.63011
45.34768
45.34443
45.34944
45.32759
45.35255
45.34053
45.35606
45.34638
45.58478
45.2338
45.48584
45.3447
45.6504
45.2844
45.34785
45.35479
45.3497
45.34437
45.44514
45.34664
45.38342
45.43104
45.30979
45.33343
45.40389
45.34944
45.34874
45.3745
45.29893
45.29106
45.23164
45.25682
45.30635
45.32745
45.35922
45.39569
45.3863
45.41354
45.27403
45.32006
45.32527
45.27179
45.37618
45.35482
45.43285
45.38607
45.594
45.40966
45.34695
45.36945
45.35252
45.3592
45.35721
45.36391
45.35846
45.36351
45.36312
45.36381
45.35637
45.35879
45.36264
45.35951
45.35851
45.36031
45.35797
45.35592
45.36268
45.35993
45.36239
45.35924
45.36051
45.3572
45.36003
45.35548
45.36009
45.36129
45.36214
45.36323
45.3561
45.35911
45.36242
45.36007
45.35676
45.36132
45.37134
45.36256
45.37114
45.37703
45.35072
45.35666
45.37383
45.35516
45.36823
45.37253
45.36253
45.361
45.3569
45.36118
45.36257
45.36095
45.36112
45.36662
45.36112
45.36513
45.36258
45.36661
45.3569
45.36116
45.35645
45.35486
45.36394
45.36226
45.3628
45.36272
45.36967
45.36837
45.3624
45.36826
45.35673
45.36134
45.35357
45.35103
45.36675
45.35965
45.36416
45.36433
45.3654
45.363
45.36497
45.36011
45.37391
45.3681
45.35933
45.36262
45.36529
45.3582
45.35818
45.36287
45.36378
45.35649
45.36822
45.36819
45.35972
45.36276
45.3699
45.364
45.37957
45.37263
45.37105
45.37408
45.37274
45.36554
45.37101
45.37714
45.35808
45.36439
45.35663
45.35722
45.35812
45.35721
45.3653
45.3641
45.36962
45.36427
45.36779
45.36623
45.3625
45.36082
45.35689
45.3612
45.35081
45.34938
45.36791
45.35506
45.36813
45.37211
45.35082
45.35508
45.36228
45.34957
45.36815
45.36638
45.35692
45.36116
45.35694
45.35544
45.35548
45.35543
45.36568
45.35942
45.35954
45.37092
45.34931
45.35924
45.41081
45.36079
45.40304
45.41377
45.34513
45.34961
45.34513
45.34962
45.405
45.3497
45.40866
45.41364
45.35076
45.36081
45.35076
45.36081
45.34512
45.35533
45.3493
45.3551
45.40368
45.35386
45.41273
45.41349
45.3549
45.36469
45.34365
45.35532
45.34783
45.35362
45.34227
45.35239
45.35078
45.35356
45.35078
45.36079
45.41065
45.36089
45.40303
45.41386
45.35077
45.3551
45.35049
45.35533
45.35489
45.36055
45.3493
45.35933
45.35622
45.3608
45.35609
45.36068
45.35637
45.36054
45.35468
45.3608
45.3549
45.36477
45.34512
45.35533
45.34931
45.3551
45.34639
45.35786
45.3464
45.35639
45.34801
45.35778
45.34097
45.35215
45.34669
45.35041
45.34122
45.35051
45.33703
45.3431
45.33863
45.34246
45.34292
45.34625
45.34309
45.34681
45.34869
45.34768
45.40459
45.35109
45.40599
45.41118
45.30271
45.30367
45.38219
45.32412
45.42096
45.39603
45.39407
45.40977
45.49667
45.56681
45.3548
45.44453
45.55015
45.48247
45.35181
45.50618
45.46069
45.46242
45.40527
45.43157
45.52127
45.34996
45.34772
45.33759
45.33061
45.3393
45.34805
45.35053
45.61606
45.29833
45.27718
45.33935
45.34565
45.34663
45.35334
45.55818
45.34787
45.33974
45.34775
45.34475
45.38776
45.3268
45.38631
45.32704
45.38631
45.43532
45.38342
45.38272
45.38344
45.38635
45.32831
45.38785
45.32342
45.32824
45.3261
45.38466
45.34551
45.3447
45.34405
45.34956
45.35106
45.34475
45.34415
45.34025
45.35214
45.34688
45.3527
45.34771
45.35038
45.34783
45.34847
45.3448
45.34599
45.34464
45.35335
45.34412
45.34766
45.34921
45.34309
45.28505
45.30033
45.4673
45.44157
45.41384
45.42142
45.53745
45.45538
45.48034
45.30275
45.33039
45.34646
45.34915
45.34934
45.34194
45.3078
45.32764
45.29458
45.38629
45.3409
45.34231
45.54336
45.2989
45.28832
45.29413
45.30082
45.39382
45.38768
45.33448
45.3333
45.38982
45.43772
45.27912
45.32359
45.42891
45.4293
45.27764
45.327
45.43761
45.43295
45.27433
45.26811
45.43408
45.43442
45.33278
45.32481
45.43549
45.42926
45.43402
45.42803
45.33276
45.38027
45.37206
45.37265
45.27768
45.32697
45.37917
45.37439
45.32919
45.31616
45.43049
45.42924
45.32481
45.2614
45.27252
45.26143
45.44058
45.37421
45.29643
45.31989
45.34611
45.34519
45.34968
45.34918
45.34969
45.34364
45.35481
45.35434
45.34976
45.35435
45.34975
45.34911
45.35194
45.34717
45.35198
45.3576
45.35048
45.34408
45.34799
45.34671
45.34282
45.34219
45.3519
45.35768
45.33797
45.33177
45.35199
45.35206
45.34536
45.34938
45.34177
45.34692
45.34324
45.35248
45.35484
45.35427
45.33785
45.34415
45.34965
45.35076
45.35927
45.35474
45.35774
45.34845
45.34885
45.34782
45.34692
45.34975
45.34853
45.34857
45.34633
45.35202
45.3525
45.34153
45.34042
45.48383
45.31232
45.34708
45.41651
45.48462
45.34955
45.62778
45.58063
45.34632
45.34558
45.32542
45.38524
45.3475
45.3468
45.35236
45.35243
45.35114
45.34065
45.35403
45.34257
45.34618
45.34571
45.28739
45.34367
45.34761
45.35403
45.34908
45.34376
45.3442
45.31058
45.42928
45.26136
45.31403
45.36452
45.37665
45.31395
45.32474
45.62545
45.36924
45.3164
45.37805
45.38015
45.42432
45.3461
45.37462
45.35064
45.61858
45.58245
45.31267
45.32836
45.44625
45.4904
45.41497
45.38023
45.32627
45.2954
45.24209
45.31178
45.42805
45.34667
45.3487
45.35287
45.3457
45.49051
45.51975
45.30377
45.3792
45.32632
45.11169
45.41659
45.35124
45.31329
45.50435
45.50803
45.34682
45.3248
45.35446
45.20411
45.22734
45.61362
45.48362
45.34397
45.35602
45.35759
45.38013
45.46509
45.62902
45.34354
45.41049
45.3478
45.21713
45.35408
45.34165
45.24934
45.63562
45.34486
45.34173
45.42309
45.37662
45.56005
45.39179
45.35007
45.29074
45.57338
45.34435
45.34075
45.34592
45.34286
45.13719
45.41417
45.34472
45.34022
45.34611
45.3467
45.34637
45.34183
45.43742
45.37402
45.35243
45.25523
45.29366
45.3644
45.36696
45.31679
45.33966
45.42274
45.32228
45.3513
45.30161
45.30186
45.29758
45.2463
45.22229
45.34434
45.14155
45.36846
45.36188
45.34243
45.34557
45.36653
45.35925
45.33664
45.34872
45.34595
45.3514
45.35067
45.35054
45.34818
45.34932
45.35056
45.35022
45.34859
45.34879
45.35073
45.34715
45.34745
45.34749
45.34557
45.35201
45.35138
45.34504
45.35073
45.34745
45.34779
45.35422
45.35453
45.35133
45.35286
45.35166
45.35161
45.35166
45.35045
45.35145
45.35301
45.35123
45.34857
45.35748
45.35303
45.35319
45.35795
45.34829
45.35021
45.35325
45.35464
45.34979
45.34992
45.35642
45.35581
45.35318
45.35627
45.35452
45.35423
45.35292
45.35108
45.3529
45.34947
45.3501
45.34949
45.34992
45.35003
45.35469
45.353
45.35486
45.35773
45.35129
45.35
45.35585
45.353
45.3498
45.35142
45.34519