/*--------------------------------*- C++ -*----------------------------------*\
  =========                 |
  \\      /  F ield         | OpenFOAM: The Open Source CFD Toolbox
   \\    /   O peration     | Website:  https://openfoam.org
    \\  /    A nd           | Version:  11
     \\/     M anipulation  |
\*---------------------------------------------------------------------------*/
FoamFile
{
    format      ascii;
    class       volScalarField;
    location    "0";
    object      yPlus;
}
// * * * * * * * * * * * * * * * * * * * * * * * * * * * * * * * * * * * * * //

dimensions      [0 0 0 0 0 0 0];

internalField   uniform 0;

boundaryField
{
    inlet
    {
        type            calculated;
        value           uniform 0;
    }
    outlet
    {
        type            calculated;
        value           uniform 0;
    }
    wall
    {
        type            calculated;
        value           nonuniform List<scalar> 
34098
(
29.00919
29.01495
28.98683
28.99697
28.97422
28.97189
28.97775
28.97531
28.96243
28.97168
28.94608
28.94288
28.96276
28.94373
28.9628
28.9604
28.96284
28.9606
28.96291
28.9609
28.96295
28.96115
28.96296
28.96132
28.96298
28.96138
28.96297
28.96142
28.96298
28.96144
28.96298
28.96144
28.96299
28.96145
28.96298
28.96145
28.96299
28.96145
28.96298
28.96145
28.96299
28.96145
28.96298
28.96145
28.96298
28.96144
28.96299
28.96145
28.96298
28.96145
28.96298
28.96144
28.96299
28.96145
28.96298
28.96145
28.96298
28.96144
28.96298
28.96144
28.96299
28.96145
28.96299
28.96146
28.96299
28.96146
28.96299
28.96146
28.96299
28.96146
28.96299
28.96146
28.96299
28.96146
28.96298
28.96145
28.96299
28.96145
28.96299
28.96146
28.96298
28.96145
28.96299
28.96145
28.96298
28.96145
28.96299
28.96145
28.96298
28.96145
28.96298
28.96144
28.96298
28.96144
28.96299
28.96145
28.96299
28.96146
28.96298
28.96145
28.96299
28.96145
28.96299
28.96146
28.96299
28.96146
28.96299
28.96146
28.96298
28.96145
28.96299
28.96145
28.96299
28.96146
28.96299
28.96146
28.96298
28.96145
28.96299
28.96145
28.96298
28.96145
28.96299
28.96145
28.96299
28.96146
28.96298
28.96145
28.96299
28.96145
28.96298
28.96145
28.96299
28.96145
28.96299
28.96146
28.96299
28.96146
28.96299
28.96146
28.96299
28.96146
28.96298
28.96145
28.96299
28.96145
28.96299
28.96146
28.96298
28.96145
28.96299
28.96145
28.96298
28.96145
28.96298
28.96144
28.96299
28.96145
28.96299
28.96146
28.96299
28.96146
28.96299
28.96146
28.96298
28.96145
28.96298
28.96144
28.96299
28.96145
28.96299
28.96146
28.96299
28.96146
28.96299
28.96146
28.96299
28.96146
28.96298
28.96145
28.96299
28.96145
28.96299
28.96146
28.96299
28.96146
28.96299
28.96146
28.96299
28.96146
28.96299
28.96146
28.96299
28.96146
28.96299
28.96146
28.96299
28.96146
28.96299
28.96146
28.96298
28.96145
28.96298
28.96144
28.96298
28.96144
28.96299
28.96145
28.96298
28.96145
28.96299
28.96145
28.96299
28.96146
28.96298
28.96145
28.96299
28.96145
28.96298
28.96145
28.96298
28.96144
28.96298
28.96144
28.96299
28.96145
28.96299
28.96146
28.96298
28.96145
28.96298
28.96144
28.96299
28.96145
28.96298
28.96145
28.96298
28.96144
28.96299
28.96145
28.96298
28.96145
28.96299
28.96145
28.96298
28.96145
28.96299
28.96145
28.96299
28.96146
28.96298
28.96145
28.96298
28.96144
28.96298
28.96144
28.96299
28.96145
28.96299
28.96146
28.96299
28.96146
28.96299
28.96146
28.96299
28.96146
28.96299
28.96146
28.96299
28.96146
28.96298
28.96145
28.96299
28.96145
28.96298
28.96145
28.96299
28.96145
28.96298
28.96145
28.96298
28.96144
28.96298
28.96144
28.96299
28.96145
28.96299
28.96146
28.96299
28.96146
28.96298
28.96145
28.96299
28.96145
28.96299
28.96146
28.96299
28.96146
28.96299
28.96146
28.96298
28.96145
28.96299
28.96145
28.96299
28.96146
28.96299
28.96146
28.96298
28.96145
28.96299
28.96145
28.96298
28.96145
28.96298
28.96144
28.96298
28.96144
28.96298
28.96144
28.96299
28.96145
28.96299
28.96146
28.96299
28.96146
28.96299
28.96146
28.96299
28.96146
28.96299
28.96146
28.96299
28.96146
28.96298
28.96145
28.963
28.96143
28.96297
28.96139
28.96297
28.96135
28.96297
28.9613
28.96296
28.96125
28.96292
28.96119
28.96292
28.96116
28.96295
28.96123
28.96305
28.96152
28.96325
28.9623
28.94689
28.94707
28.96395
28.94886
28.94718
28.9496
28.96287
28.94668
28.96051
28.95426
28.97586
28.96128
28.97758
28.94389
28.97944
28.91206
28.93754
28.93486
28.947
28.94395
28.94882
28.93049
28.93492
28.95162
28.93543
28.93057
28.94885
28.94467
28.94419
28.94502
28.92889
28.99424
29.02619
29.00033
28.974
28.96278
28.9649
28.96569
28.94917
28.94919
28.96592
28.9492
28.94921
28.96591
28.96591
28.96593
28.96591
28.96593
28.96591
28.96591
28.96593
28.96593
28.96593
28.96592
28.96593
28.96593
28.96593
28.96591
28.96593
28.96593
28.96593
28.96593
28.96593
28.96593
28.96593
28.96593
28.96593
28.96593
28.96593
28.96593
28.96593
28.96593
28.96592
28.96592
28.96593
28.96592
28.96592
28.96593
28.96593
28.96591
28.96592
28.96593
28.96593
28.96591
28.96593
28.96593
28.96593
28.96593
28.96593
28.96593
28.96592
28.96593
28.96593
28.96591
28.96593
28.96593
28.96593
28.96593
28.96593
28.96593
28.96591
28.96593
28.96593
28.96592
28.96593
28.96593
28.96591
28.96593
28.96593
28.96593
28.96592
28.96593
28.96593
28.96593
28.96592
28.96592
28.96593
28.94922
28.94919
28.96588
28.96585
28.94924
28.966
28.94866
28.93483
29.02384
29.03201
29.03134
29.01984
29.0283
29.0198
29.01899
29.02502
29.02055
29.04006
29.03395
29.03609
29.03504
29.02567
29.02708
29.01869
29.02427
29.0191
29.01878
29.02145
29.02396
29.02464
29.02471
29.02992
29.02819
29.03017
29.0308
29.03109
29.02974
29.03161
29.02951
29.0288
29.03212
29.02949
29.02861
29.03129
29.03064
29.03439
29.03263
29.02695
29.02974
29.04084
29.03346
29.03606
29.03932
29.02448
29.0261
29.03794
29.03205
29.02338
29.03246
29.03004
29.04028
29.04134
29.04738
29.04143
29.05913
29.02785
29.03274
29.01963
29.03001
29.01698
29.01413
29.03524
29.02326
29.043
29.04538
29.02174
29.02577
29.03193
29.0196
29.0411
29.03756
29.04679
29.0463
29.04295
29.04137
29.02756
29.0348
29.02017
29.01857
29.03685
29.02822
29.02859
29.03796
29.02794
29.0258
29.02868
29.02811
29.03078
29.02917
29.03315
29.03029
29.03043
29.03186
29.02534
29.02464
29.02519
29.02619
29.03227
29.03149
29.03141
29.03402
29.03293
29.02988
29.02901
29.02852
29.01283
29.01956
29.0133
29.01673
29.01794
29.01918
29.0179
29.01524
29.02478
29.01799
29.01143
29.01049
29.00562
29.00636
28.82077
28.95
28.9441
28.91857
28.93399
28.92034
28.95257
28.94443
28.94366
28.9365
28.931
28.9405
28.94073
28.93183
28.94544
28.94361
28.93984
28.94793
28.9374
28.97345
28.97725
28.94379
28.98757
28.97117
28.96407
28.96537
28.94909
28.9492
28.94919
28.94922
28.9492
28.94922
28.96593
28.96593
28.96591
28.94922
28.94921
28.96593
28.96593
28.96593
28.96593
28.96593
28.96593
28.96593
28.96593
28.96592
28.96593
28.96593
28.96593
28.96593
28.96593
28.96593
28.96593
28.96593
28.96593
28.96593
28.96593
28.96592
28.96593
28.96593
28.96593
28.96593
28.96593
28.96593
28.96593
28.96593
28.96593
28.96592
28.96593
28.96592
28.96593
28.96593
28.96593
28.96593
28.96593
28.96593
28.96593
28.96593
28.96593
28.96593
28.96593
28.96593
28.96593
28.96592
28.96593
28.96593
28.96593
28.96593
28.96593
28.96591
28.96593
28.96593
28.96593
28.96592
28.96593
28.96593
28.96593
28.96593
28.96593
28.96593
28.96593
28.96592
28.96593
28.96593
28.96593
28.96593
28.94922
28.94917
28.94914
28.94917
28.94932
28.94902
28.94938
29.00196
28.96461
28.99662
28.93833
28.94499
28.94773
28.94304
28.94324
28.93186
28.93766
28.94791
28.93577
28.93875
28.94574
28.94087
28.9452
28.93348
28.96375
28.97259
28.95912
28.94319
28.94331
28.95998
28.94326
28.94327
28.97669
28.97669
28.97669
28.95998
28.95998
28.97669
28.97669
28.9767
28.9767
28.9767
28.97669
28.9767
28.9767
28.97669
28.97669
28.9767
28.9767
28.9767
28.9767
28.9767
28.9767
28.9767
28.9767
28.9767
28.9767
28.97669
28.9767
28.9767
28.9767
28.97669
28.97669
28.9767
28.97669
28.97669
28.9767
28.97669
28.97669
28.97667
28.9767
28.9767
28.97669
28.9767
28.9767
28.9767
28.9767
28.9767
28.9767
28.97669
28.9767
28.9767
28.97669
28.97669
28.9767
28.9767
28.9767
28.9767
28.9767
28.97667
28.9767
28.9767
28.97669
28.97669
28.9767
28.97669
28.9767
28.9767
28.9767
28.97669
28.9767
28.97669
28.9767
28.97669
28.97669
28.9767
28.94329
28.94321
28.95973
28.95973
28.94367
28.95972
28.94231
28.93283
28.95059
28.9456
28.94085
28.9511
28.96784
28.94294
28.94328
28.95999
28.94327
28.94326
28.95998
28.97669
28.9767
28.97667
28.96
28.95997
28.97669
28.9767
28.9767
28.9767
28.97669
28.9767
28.9767
28.9767
28.97667
28.9767
28.9767
28.9767
28.9767
28.9767
28.9767
28.9767
28.9767
28.9767
28.9767
28.9767
28.97669
28.9767
28.9767
28.97669
28.97669
28.9767
28.97669
28.97669
28.9767
28.9767
28.97667
28.97669
28.97669
28.9767
28.97669
28.9767
28.9767
28.9767
28.9767
28.9767
28.9767
28.97669
28.9767
28.9767
28.97669
28.9767
28.97669
28.9767
28.9767
28.9767
28.9767
28.97669
28.97669
28.9767
28.97669
28.9767
28.97669
28.97669
28.9767
28.9767
28.9767
28.97669
28.9767
28.9767
28.97669
28.97669
28.97669
28.9767
28.95999
28.94328
28.95983
28.95966
28.9433
28.96048
28.94138
28.93304
28.93449
28.98806
28.92829
28.95336
28.94571
28.97465
28.97335
28.96925
28.94024
28.96481
28.97612
28.9675
28.95977
28.97263
28.94463
28.95461
28.94633
28.95034
28.96307
28.96686
28.94823
28.95283
28.96608
28.95574
28.96723
28.97435
28.95155
28.9595
28.96815
28.96022
28.95198
28.96056
28.95205
28.94441
28.95203
28.94446
28.95212
28.94451
28.9684
28.96086
28.96841
28.97709
28.96841
28.97713
28.96841
28.97709
28.96841
28.97713
28.96836
28.97709
28.96845
28.97713
28.96841
28.97717
28.9684
28.97713
28.96841
28.97713
28.96841
28.97713
28.96836
28.97709
28.96836
28.97709
28.96844
28.97713
28.96845
28.97717
28.96845
28.97713
28.96849
28.97717
28.96845
28.97717
28.96849
28.97717
28.96845
28.97717
28.96841
28.97713
28.96841
28.97709
28.96849
28.97717
28.96841
28.97717
28.96841
28.97709
28.96841
28.97713
28.96841
28.97709
28.96841
28.97713
28.9684
28.97713
28.96836
28.97713
28.96845
28.97713
28.96845
28.97717
28.96845
28.97717
28.96841
28.97713
28.96849
28.97717
28.96845
28.97717
28.96845
28.97713
28.96844
28.97717
28.96841
28.97713
28.96845
28.97713
28.96845
28.97713
28.96841
28.97713
28.96841
28.97709
28.96844
28.97717
28.96844
28.97717
28.96845
28.97717
28.96845
28.97717
28.96841
28.97713
28.96841
28.97713
28.96841
28.97709
28.96849
28.97717
28.96849
28.97721
28.96849
28.97721
28.96849
28.97721
28.96845
28.97721
28.96841
28.97713
28.96845
28.97713
28.96845
28.97717
28.96845
28.97717
28.96845
28.97721
28.96836
28.97713
28.96845
28.97713
28.96845
28.97717
28.96845
28.97713
28.96845
28.97713
28.96845
28.97717
28.9684
28.97717
28.96845
28.97717
28.96849
28.97721
28.96849
28.97721
28.96845
28.97717
28.96849
28.97717
28.96841
28.97717
28.96845
28.97713
28.96845
28.97717
28.96849
28.97717
28.96849
28.97721
28.96845
28.97717
28.96845
28.97713
28.96849
28.97717
28.96845
28.97717
28.96845
28.97713
28.96845
28.97713
28.96841
28.97713
28.9684
28.97713
28.9684
28.97717
28.96841
28.97713
28.96844
28.97717
28.96841
28.97713
28.96845
28.97713
28.96844
28.97717
28.96844
28.97717
28.96844
28.97721
28.9684
28.97717
28.96836
28.97713
28.96841
28.97709
28.96849
28.97717
28.96841
28.97717
28.9684
28.97713
28.96841
28.97713
28.96841
28.97713
28.9684
28.97713
28.96841
28.97713
28.96841
28.97713
28.96841
28.97709
28.96841
28.97713
28.96841
28.97709
28.96845
28.97713
28.96845
28.97717
28.96836
28.97713
28.96836
28.97709
28.96845
28.97713
28.96845
28.97717
28.96849
28.97717
28.96849
28.97721
28.96845
28.97717
28.96845
28.97713
28.96849
28.97717
28.96841
28.97717
28.96841
28.97709
28.96841
28.97713
28.96841
28.97709
28.96841
28.97713
28.96836
28.97709
28.96836
28.97709
28.96845
28.97713
28.96845
28.97717
28.96845
28.97713
28.96841
28.97713
28.96841
28.97709
28.96849
28.97717
28.96849
28.97721
28.96845
28.97717
28.96841
28.97713
28.96841
28.97709
28.96849
28.97717
28.96845
28.97717
28.96841
28.97713
28.96845
28.97713
28.96845
28.97721
28.96836
28.97713
28.9684
28.97713
28.9684
28.97717
28.96845
28.97717
28.96849
28.97721
28.96845
28.97717
28.96849
28.97717
28.96849
28.97721
28.96849
28.97721
28.96845
28.97717
28.95212
28.96086
28.96833
28.96077
28.95188
28.96066
28.95176
28.94414
28.95154
28.94387
28.96761
28.95978
28.96736
28.97568
28.95093
28.95909
28.96745
28.95908
28.96846
28.97611
28.95504
28.96257
28.94497
28.95327
28.95345
28.94954
28.95859
28.97884
28.93473
28.94903
28.93374
28.93722
28.96511
28.94326
28.9817
28.98153
28.97508
28.92346
28.9441
28.94412
28.94359
28.92455
28.90426
28.95689
28.93142
28.95273
28.95311
28.94861
28.94391
28.94404
28.94472
28.93666
28.94771
28.94674
28.94243
28.94183
28.94065
28.93838
28.96167
28.93121
28.96459
28.93589
28.93957
28.9381
28.97453
28.97425
28.96672
28.9431
28.95291
28.96164
28.94031
28.97182
28.96168
28.94874
28.94868
28.94869
28.94865
28.96488
28.96485
28.96489
28.96476
28.96496
28.96488
28.96485
28.96489
28.96485
28.96485
28.96481
28.96489
28.96489
28.96485
28.96476
28.96485
28.96489
28.96485
28.96489
28.96489
28.96489
28.96489
28.96489
28.96485
28.96489
28.96489
28.96481
28.96485
28.96485
28.96485
28.9648
28.96485
28.9648
28.9648
28.96489
28.96489
28.9648
28.96485
28.96485
28.96489
28.9648
28.96489
28.96489
28.96485
28.96489
28.96489
28.96485
28.96481
28.96489
28.96489
28.9648
28.96485
28.96485
28.96485
28.96489
28.96489
28.96489
28.9648
28.96485
28.96485
28.96485
28.96489
28.96485
28.9648
28.96485
28.96489
28.96489
28.96481
28.96485
28.96489
28.9648
28.96485
28.96485
28.96489
28.94871
28.94868
28.94807
28.9635
28.93246
28.95179
28.92562
28.93618
28.93241
28.93036
28.93941
28.93392
28.92779
28.94816
28.80292
29.02505
28.94567
28.942
28.93843
28.94048
28.93535
29.01871
29.03198
29.02497
29.03532
29.03324
29.03144
29.03969
29.02516
29.03848
29.02803
29.0257
29.02428
29.02656
29.02597
29.02188
29.03184
29.02963
29.03385
29.03546
29.03093
29.03269
29.02913
29.03001
29.02976
29.02874
29.03053
29.02941
29.03025
29.0281
29.03148
29.0301
29.03504
29.03362
29.02757
29.03366
29.02877
29.02187
29.04214
29.03719
29.03257
29.04328
29.03453
29.03424
29.03226
29.03948
29.04044
29.02302
29.05773
29.03924
29.04986
29.04178
29.03669
29.03492
29.03109
29.0319
29.02981
29.03536
29.03775
29.04591
29.04392
29.04672
29.02737
29.04183
29.02316
29.0258
29.03463
29.03232
29.03321
29.02504
29.03139
29.02253
29.0241
29.01997
29.02893
29.02929
29.03514
29.03548
29.03899
29.04189
29.02722
29.03352
29.02903
29.02929
29.02922
29.02793
29.03124
29.02993
29.03183
29.03227
29.02407
29.02775
29.02929
29.02687
29.03508
29.02983
29.03954
29.0381
29.02847
29.03531
29.01792
29.01882
29.0278
29.02466
29.02197
29.02031
29.02383
29.02206
29.03041
29.03528
29.02549
29.02827
29.00033
29.02391
28.98136
28.94833
28.95603
28.95079
28.96468
28.94115
28.94763
29.00349
28.93085
28.91167
28.94394
28.95156
28.94175
28.94475
28.94051
28.9529
28.94976
28.97872
28.99333
28.96064
28.96669
28.97689
28.9811
28.95968
28.94865
28.95967
28.96487
28.9598
28.94879
28.94839
28.94358
28.94246
28.95972
28.95968
28.9487
28.96485
28.96485
28.9648
28.96488
28.96488
28.96484
28.9648
28.96485
28.96485
28.96489
28.9648
28.96485
28.96489
28.9648
28.96485
28.96485
28.96489
28.96485
28.96489
28.96489
28.96489
28.96489
28.96485
28.96485
28.96489
28.96485
28.96485
28.96485
28.96485
28.96485
28.96481
28.96485
28.96481
28.96481
28.96485
28.96481
28.96485
28.96476
28.96489
28.96485
28.96485
28.96489
28.96485
28.96489
28.98112
28.96485
28.96489
28.96485
28.96485
28.96489
28.96485
28.96481
28.96489
28.96489
28.96485
28.96489
28.96485
28.9648
28.96485
28.96489
28.96485
28.96485
28.96485
28.96481
28.96489
28.96485
28.96489
28.96485
28.96485
28.96485
28.96489
28.98108
28.98108
28.96485
28.94874
28.9322
28.96387
28.96372
28.93448
28.96582
28.95443
28.9435
28.9435
29.01473
28.94346
28.94346
28.92585
28.95747
28.94054
28.93235
28.9424
28.95775
28.92665
28.95967
28.9435
28.95976
28.95976
28.94354
28.94346
28.9435
28.9435
28.9435
28.9435
28.94354
28.94346
28.94346
28.9435
28.94355
28.94355
28.94346
28.9435
28.94346
28.94355
28.9435
28.94354
28.9435
28.94346
28.9435
28.9435
28.9435
28.94355
28.9435
28.94346
28.95976
28.94354
28.94346
28.94354
28.94355
28.94346
28.94354
28.94346
28.94355
28.94346
28.9435
28.9435
28.94346
28.94346
28.94346
28.9435
28.9435
28.94346
28.94346
28.94346
28.94355
28.9435
28.94346
28.94355
28.94354
28.94354
28.94354
28.9435
28.9435
28.9435
28.9435
28.94342
28.9435
29.01199
28.9435
28.94092
28.96493
28.92904
28.94355
28.97369
28.95848
28.94325
28.94356
28.9435
28.95972
28.95972
28.9435
28.94354
28.94346
28.94346
28.94354
28.9435
28.9435
28.94342
28.9435
28.94354
28.9435
28.9435
28.9435
28.94346
28.9435
28.94354
28.9435
28.9435
28.94354
28.94346
28.94346
28.94354
28.9435
28.94346
28.9435
28.9435
28.95976
28.9435
28.9435
28.94354
28.94346
28.9435
28.94354
28.94346
28.9435
28.9435
28.9435
28.94342
28.94341
28.94346
28.94342
28.9435
28.94346
28.94346
28.94346
28.94354
28.94354
28.94346
28.9435
28.94354
28.94354
28.94354
28.94354
28.94346
28.94354
28.94346
28.94346
28.94346
28.94354
28.9435
28.94342
28.9435
28.94346
28.9435
28.94346
28.95971
28.97592
28.95963
28.9435
28.9435
28.95967
28.95968
28.95567
28.94408
28.94423
28.94383
28.96685
28.94177
28.94368
28.9435
28.94454
28.94247
28.95972
28.95976
29.00022
28.95958
28.94342
28.94355
28.94355
28.95972
28.95804
28.94139
28.93938
28.96535
28.95023
28.9697
28.96376
28.94674
28.95966
28.95381
28.94117
28.9741
28.96533
28.94623
28.95546
28.94772
28.92768
28.94834
28.94441
28.93333
28.92971
28.94887
28.94545
28.94907
28.96102
28.96443
28.96123
28.96432
28.96115
28.97971
28.96116
28.97971
28.97653
28.97978
28.9766
28.97972
28.9766
28.97985
28.9766
28.97978
28.97667
28.97978
28.97653
28.97978
28.9766
28.96432
28.96116
28.96438
28.94585
28.96432
28.94585
28.96439
28.94579
28.96439
28.94585
28.96432
28.94579
28.96439
28.94579
28.96445
28.94592
28.96439
28.94585
28.97978
28.96123
28.97971
28.97653
28.97971
28.97653
28.97978
28.97653
28.97985
28.97667
28.97972
28.9766
28.97972
28.97653
28.97972
28.97653
28.97972
28.97653
28.97978
28.97653
28.97978
28.9766
28.97978
28.97653
28.97985
28.97667
28.97978
28.9766
28.97985
28.97667
28.97978
28.9766
28.97978
28.9766
28.97971
28.97653
28.96439
28.96116
28.96439
28.94585
28.96432
28.94579
28.96432
28.94579
28.96432
28.94579
28.96432
28.94579
28.96439
28.94579
28.96445
28.94585
28.96439
28.94585
28.96439
28.94579
28.97978
28.96123
28.97971
28.97653
28.97971
28.97653
28.97978
28.97653
28.97985
28.9766
28.97985
28.9766
28.97985
28.9766
28.97985
28.9766
28.97978
28.9766
28.97971
28.97653
28.97978
28.97653
28.97985
28.9766
28.97985
28.9766
28.97978
28.9766
28.97985
28.9766
28.97978
28.97667
28.97971
28.97653
28.97971
28.97653
28.97978
28.97653
28.97992
28.97667
28.97985
28.97667
28.97985
28.9766
28.97985
28.9766
28.97978
28.9766
28.97978
28.97653
28.97978
28.9766
28.97978
28.97653
28.97978
28.9766
28.97978
28.97653
28.97985
28.9766
28.97985
28.97667
28.97978
28.97666
28.97985
28.97666
28.96439
28.9613
28.96432
28.94579
28.96438
28.94585
28.96432
28.94585
28.96439
28.94579
28.96445
28.94585
28.96439
28.94585
28.96439
28.94579
28.96439
28.94585
28.96432
28.94579
28.96439
28.94579
28.96445
28.94585
28.96445
28.94586
28.96445
28.94586
28.96439
28.94586
28.96432
28.94579
28.96439
28.94579
28.97978
28.96123
28.97978
28.97653
28.97978
28.9766
28.97971
28.97653
28.97978
28.97653
28.97978
28.9766
28.97971
28.97653
28.97971
28.97653
28.97971
28.97653
28.97971
28.97653
28.97978
28.9766
28.97978
28.9766
28.97985
28.97667
28.97971
28.9766
28.97985
28.9766
28.97978
28.97667
28.97978
28.97653
28.97985
28.9766
28.97978
28.9766
28.97971
28.97653
28.97978
28.97653
28.97985
28.97667
28.97978
28.97666
28.97971
28.9766
28.96432
28.96116
28.96432
28.94579
28.96438
28.94585
28.96432
28.94585
28.96439
28.94579
28.96445
28.94592
28.96432
28.94585
28.97978
28.96123
28.97971
28.9766
28.97985
28.9766
28.97985
28.97667
28.97978
28.9766
28.97971
28.97653
28.96432
28.96116
28.96439
28.94579
28.96439
28.94585
28.96432
28.94579
28.96439
28.94579
28.97985
28.96123
28.97978
28.9766
28.97985
28.9766
28.97985
28.97667
28.97985
28.9766
28.96445
28.96123
28.97978
28.96123
28.97978
28.97653
28.97985
28.9766
28.97985
28.9766
28.97979
28.9766
28.96442
28.97653
28.96436
28.96125
28.94864
28.96094
28.93303
28.92984
28.9324
28.92926
28.96233
28.94355
28.977
28.97325
28.94573
28.95709
28.94572
28.926
28.97751
28.9571
28.96615
28.97479
28.9626
28.96815
28.95627
28.9611
28.97221
28.95689
28.95337
28.96252
28.92199
28.93526
28.95438
28.9711
28.94201
28.95353
28.94254
28.93469
28.93863
28.90821
28.96316
28.96163
28.93858
28.9532
28.94432
28.94114
28.9229
28.94312
28.9504
28.94314
28.94103
28.94477
28.94848
28.94702
28.92283
28.96834
28.95155
28.94792
28.94847
28.97373
28.93815
28.95332
28.93736
28.95312
28.95331
28.92298
28.93814
28.93729
28.96847
28.95319
28.95245
28.93713
28.96393
28.95294
28.95139
28.9372
28.92284
28.9229
28.93807
28.9415
28.93738
28.94481
28.9229
28.92219
28.92284
28.9229
28.93646
28.92297
28.92212
28.92283
28.92212
28.92283
28.9229
28.92284
28.93819
28.93819
28.93819
28.93819
28.93826
28.9229
28.92283
28.9229
28.93819
28.9229
28.92283
28.92283
28.93812
28.93812
28.93805
28.92283
28.92276
28.92283
28.92283
28.9229
28.92297
28.92283
28.92297
28.92276
28.9229
28.92297
28.93811
28.93819
28.95344
28.93811
28.93819
28.92298
28.93819
28.92284
28.93812
28.93819
28.93812
28.93819
28.93819
28.93826
28.92276
28.92291
28.92283
28.93826
28.93826
28.92298
28.92277
28.92277
28.93819
28.93812
28.93819
28.93812
28.9229
28.92283
28.93819
28.95344
28.95344
28.92283
28.96827
28.93704
28.96481
28.96179
28.93821
28.93729
28.92608
28.95393
28.94298
28.96041
28.92661
28.9229
28.92219
28.93806
28.95246
28.93729
29.03259
29.03643
29.01671
29.03219
29.0224
29.01497
29.03377
29.02647
29.02582
29.02854
29.03395
29.02985
29.03556
29.03243
29.03398
29.03457
29.03103
29.03159
29.02967
29.03059
29.02864
29.02915
29.03375
29.03266
29.0275
29.03381
29.03275
29.02624
29.03101
29.03415
29.02552
29.02591
29.03287
29.0285
29.03889
29.03159
29.04733
29.04027
29.02677
29.03408
29.01684
29.01573
29.02632
29.02052
29.03429
29.03534
29.02497
29.03213
29.01845
29.01298
29.03505
29.01563
29.04262
29.02578
29.04053
29.02769
29.04118
29.03514
29.04334
29.0436
29.0253
29.03536
29.01358
29.01375
29.0195
29.0188
29.02288
29.03025
29.03709
29.03508
29.04151
29.04098
29.0395
29.03708
29.0355
29.03679
29.03067
29.03402
29.0288
29.0284
29.0306
29.02915
29.03277
29.03073
29.02846
29.03036
29.02269
29.02317
29.03034
29.02174
29.03601
29.03057
29.03008
29.02782
29.02636
29.02643
29.02291
29.02335
29.01897
29.02778
29.02208
29.01882
29.02686
29.00218
28.93846
28.93725
28.95556
28.9678
28.94643
28.9532
28.94675
28.95435
28.95306
28.95223
28.93729
28.95324
28.95253
28.9382
28.94296
28.9456
28.96762
28.93736
28.95331
28.96181
28.96245
28.98085
29.02111
28.9856
28.95252
28.95345
28.92197
28.95045
28.9526
28.94322
28.9523
28.92577
28.94544
28.9573
28.9427
28.9868
28.94331
28.96754
28.96842
28.96395
28.98539
28.9732
28.97233
28.96254
28.98056
28.97567
28.94054
28.95237
28.91396
28.95238
28.9684
28.96762
28.93736
28.92298
28.96202
28.95062
28.92211
28.92284
28.92204
28.92277
28.93722
28.92219
28.92291
28.92198
28.92276
28.92211
28.92211
28.92212
28.9229
28.92219
28.92284
28.93819
28.93804
28.93826
28.93826
28.93826
28.93826
28.92291
28.93812
28.93826
28.92291
28.92276
28.93812
28.93812
28.92297
28.92276
28.92276
28.93805
28.93812
28.93812
28.93819
28.92298
28.93819
28.93826
28.93819
28.92291
28.93819
28.93819
28.93819
28.95345
28.93819
28.93818
28.93819
28.9229
28.92298
28.92283
28.92283
28.92291
28.92283
28.9229
28.92298
28.92283
28.93813
28.92283
28.92283
28.92291
28.9229
28.9229
28.92283
28.9229
28.93818
28.92297
28.93819
28.92283
28.92291
28.92283
28.95345
28.93815
28.93819
28.95331
28.93756
28.93576
28.93297
28.93468
28.94466
28.93723
28.94463
28.93947
28.93569
28.93878
28.95219
28.94026
28.95079
28.94871
28.94373
28.94844
28.93631
28.96754
28.9373
28.95259
28.96782
28.9373
28.92205
28.92212
28.95262
28.93744
28.95255
28.93737
28.92205
28.92205
28.92212
28.93737
28.93737
28.92205
28.93729
28.92198
28.93744
28.93737
28.9373
28.9373
28.93737
28.9373
28.92212
28.93737
28.93744
28.93737
28.95269
28.95101
28.95841
28.95662
28.95255
28.95262
28.96783
28.95262
28.95262
28.93737
28.92212
28.9373
28.93744
28.9373
28.92219
28.93737
28.93723
28.9373
28.93723
28.92205
28.9351
28.95208
28.93729
28.95268
28.93744
28.95261
28.92197
28.92211
28.9373
28.95261
28.93737
28.95262
28.92204
28.92204
28.92219
28.93737
28.93737
28.92204
28.92205
28.93722
28.93737
28.93744
28.93737
28.93723
28.93737
28.9373
28.92197
28.93744
28.92218
28.95261
28.95262
28.95268
28.95262
28.95261
28.93744
28.9373
28.92204
28.93744
28.93737
28.93744
28.92219
28.93737
28.9373
28.9373
28.9373
28.93723
28.93723
28.93737
28.93737
28.93737
28.92205
28.9373
28.93744
28.93737
28.92212
28.95269
28.95262
28.95262
28.95269
28.95255
28.9373
28.92211
28.946
28.94979
28.93869
28.99356
28.92219
28.94473
28.94491
28.94245
28.93736
28.92204
28.92212
28.95262
28.94631
28.95104
28.93737
28.96335
28.92211
28.93737
28.95268
28.93683
28.93736
28.95262
28.92204
28.95262
28.95255
28.95262
28.92204
28.93727
28.94509
28.95497
28.96545
28.96671
28.96378
28.97503
28.95789
28.96876
28.95809
28.96484
28.95355
28.96613
28.92995
28.94703
28.9312
28.93609
28.94678
28.95154
28.94786
28.95373
28.96207
28.95464
28.96223
28.95485
28.94829
28.95486
28.94828
28.94095
28.96223
28.95486
28.96233
28.95486
28.96233
28.95496
28.96233
28.95486
28.96233
28.95496
28.96223
28.95486
28.96223
28.95486
28.94828
28.95486
28.93441
28.94096
28.93532
28.94197
28.93432
28.94188
28.93523
28.94188
28.93432
28.94188
28.93432
28.94096
28.93441
28.94096
28.93532
28.94197
28.94828
28.94188
28.96223
28.95486
28.96223
28.95486
28.96223
28.95486
28.96233
28.95486
28.96233
28.95496
28.96223
28.95486
28.96223
28.95486
28.96314
28.95578
28.96224
28.95578
28.96224
28.95486
28.96224
28.95486
28.96233
28.95486
28.96233
28.95496
28.96233
28.95486
28.96233
28.95496
28.96223
28.95486
28.96223
28.95486
28.94828
28.95486
28.93432
28.94096
28.93432
28.94096
28.93432
28.94096
28.93432
28.94096
28.93432
28.94096
28.93432
28.94096
28.93432
28.94096
28.93523
28.94188
28.93523
28.94279
28.94919
28.94279
28.96223
28.95578
28.96223
28.95486
28.96223
28.95486
28.96223
28.95486
28.96224
28.95486
28.96224
28.95486
28.96223
28.95486
28.96223
28.95486
28.96223
28.95486
28.96223
28.95486
28.96223
28.95486
28.96223
28.95486
28.96223
28.95486
28.96233
28.95486
28.96233
28.95496
28.96223
28.95486
28.96223
28.95486
28.96223
28.95486
28.96233
28.95486
28.96233
28.95496
28.96314
28.95578
28.96223
28.95578
28.96223
28.95486
28.96223
28.95486
28.96223
28.95486
28.96223
28.95486
28.96224
28.95486
28.96223
28.95486
28.96223
28.95486
28.96233
28.95486
28.96242
28.95496
28.96242
28.95496
28.94837
28.95496
28.93432
28.94096
28.93441
28.94096
28.93441
28.94106
28.93432
28.94096
28.93432
28.94096
28.93432
28.94096
28.93432
28.94096
28.93432
28.94096
28.93432
28.94096
28.93432
28.94096
28.93432
28.94096
28.93432
28.94096
28.93432
28.94096
28.93432
28.94096
28.93432
28.94096
28.93523
28.94188
28.94828
28.94188
28.96223
28.95486
28.96223
28.95486
28.96223
28.95486
28.96223
28.95486
28.96223
28.95486
28.96223
28.95486
28.96223
28.95486
28.96223
28.95486
28.96223
28.95486
28.96233
28.95486
28.96233
28.95496
28.96323
28.95578
28.96232
28.95587
28.96232
28.95487
28.96323
28.95587
28.96223
28.95578
28.96223
28.95486
28.96223
28.95486
28.96223
28.95486
28.96223
28.95486
28.96233
28.95486
28.96242
28.95496
28.96233
28.95496
28.94828
28.95486
28.93432
28.94096
28.93532
28.94188
28.93441
28.94197
28.93432
28.94096
28.93441
28.94096
28.93441
28.94106
28.94837
28.94096
28.96233
28.95496
28.96233
28.95486
28.96323
28.95587
28.96223
28.95578
28.96223
28.95486
28.94828
28.95486
28.93523
28.94188
28.93432
28.94188
28.93432
28.94096
28.93432
28.94096
28.94828
28.94096
28.96223
28.95486
28.96233
28.95486
28.96233
28.95496
28.96223
28.95486
28.94828
28.95486
28.94828
28.94096
28.96223
28.95487
28.96314
28.95578
28.96224
28.95578
28.96222
28.95487
28.96223
28.95488
28.96222
28.95487
28.94812
28.95486
28.93383
28.94072
28.93234
28.93957
28.94538
28.93808
28.95759
28.95041
28.94209
28.94808
28.92777
28.93282
28.95615
28.94688
28.95872
28.96215
28.98101
28.96579
28.96858
28.98319
28.95074
28.95755
28.93421
28.94335
28.94212
28.93842
28.9199
28.95099
28.97526
28.95929
28.96787
28.93728
28.94205
28.93454
28.95574
28.9498
28.95783
28.96462
28.94774
28.93698
28.95058
28.93712
28.94981
28.9976
28.93727
28.93727
28.93703
28.93703
28.93567
28.93703
28.93674
28.92103
28.94504
28.96112
28.96453
28.96462
28.968
28.93727
28.93727
28.95056
28.95067
28.95033
28.93651
28.9232
28.96461
28.95082
28.96413
28.93727
28.9508
28.92329
28.93665
28.93708
28.9233
28.92293
28.92339
28.93675
28.92339
28.95079
28.96462
28.96472
28.96425
28.93718
28.95056
28.96462
28.96425
28.95084
28.93703
28.92329
28.93675
28.951
28.95043
28.94743
28.94962
28.96462
28.93717
28.93717
28.93712
28.95044
28.96472
28.93712
28.95044
28.96471
28.93693
28.947
28.95081
28.9509
28.95089
28.93693
28.95089
28.93727
28.951
28.93703
28.93712
28.93717
28.95081
28.95099
28.96472
28.95075
28.96471
28.96425
28.95085
28.95043
28.95043
28.95091
28.95033
28.93712
28.95099
28.92329
28.93693
28.93712
28.93693
28.9508
28.93712
28.95099
28.93708
28.93693
28.93718
28.93703
28.9509
28.93718
28.9233
28.93718
28.93703
28.96463
28.95099
28.96462
28.92339
28.93613
28.93693
28.96471
28.95098
28.95089
28.96444
28.9352
28.94668
28.93873
28.93693
28.92283
28.92339
28.92293
29.01266
29.02463
28.9917
29.0272
29.02456
29.03099
29.02594
29.03349
29.03179
29.03014
29.02912
29.03186
29.02892
29.03197
29.03067
29.02955
29.03042
29.03394
29.03142
29.03561
29.03571
29.02363
29.0279
29.03077
29.02678
29.0329
29.03379
29.03373
29.03785
29.03455
29.04113
29.02793
29.03037
29.03013
29.03033
29.01167
29.01925
29.02936
29.02155
29.03879
29.03874
29.02908
29.03468
29.02006
29.02876
29.01648
29.02628
29.02089
29.03082
29.01777
29.02754
29.02148
29.0166
29.0585
29.04285
29.02947
29.05192
29.01645
29.02263
29.01882
29.01597
29.04021
29.02995
29.04279
29.04038
29.03932
29.04206